# vtk DataFile Version 4.1
vtk output
ASCII
DATASET STRUCTURED_GRID
DIMENSIONS 103 23 1
POINTS 2369 float
0 0 0 0.0980392 0 0 0.196078 0 0 
0.294118 0 0 0.392157 0 0 0.490196 0 0 
0.588235 0 0 0.686275 0 0 0.784314 0 0 
0.882353 0 0 0.980392 0 0 1.07843 0 0 
1.17647 0 0 1.27451 0 0 1.37255 0 0 
1.47059 0 0 1.56863 0 0 1.66667 0 0 
1.76471 0 0 1.86275 0 0 1.96078 0 0 
2.05882 0 0 2.15686 0 0 2.2549 0 0 
2.35294 0 0 2.45098 0 0 2.54902 0 0 
2.64706 0 0 2.7451 0 0 2.84314 0 0 
2.94118 0 0 3.03922 0 0 3.13725 0 0 
3.23529 0 0 3.33333 0 0 3.43137 0 0 
3.52941 0 0 3.62745 0 0 3.72549 0 0 
3.82353 0 0 3.92157 0 0 4.01961 0 0 
4.11765 0 0 4.21569 0 0 4.31373 0 0 
4.41176 0 0 4.5098 0 0 4.60784 0 0 
4.70588 0 0 4.80392 0 0 4.90196 0 0 
5 0 0 5.09804 0 0 5.19608 0 0 
5.29412 0 0 5.39216 0 0 5.4902 0 0 
5.58824 0 0 5.68627 0 0 5.78431 0 0 
5.88235 0 0 5.98039 0 0 6.07843 0 0 
6.17647 0 0 6.27451 0 0 6.37255 0 0 
6.47059 0 0 6.56863 0 0 6.66667 0 0 
6.76471 0 0 6.86275 0 0 6.96078 0 0 
7.05882 0 0 7.15686 0 0 7.2549 0 0 
7.35294 0 0 7.45098 0 0 7.54902 0 0 
7.64706 0 0 7.7451 0 0 7.84314 0 0 
7.94118 0 0 8.03922 0 0 8.13725 0 0 
8.23529 0 0 8.33333 0 0 8.43137 0 0 
8.52941 0 0 8.62745 0 0 8.72549 0 0 
8.82353 0 0 8.92157 0 0 9.01961 0 0 
9.11765 0 0 9.21569 0 0 9.31373 0 0 
9.41177 0 0 9.5098 0 0 9.60784 0 0 
9.70588 0 0 9.80392 0 0 9.90196 0 0 
10 0 0 0 0.0909091 0 0.0980392 0.0909091 0 
0.196078 0.0909091 0 0.294118 0.0909091 0 0.392157 0.0909091 0 
0.490196 0.0909091 0 0.588235 0.0909091 0 0.686275 0.0909091 0 
0.784314 0.0909091 0 0.882353 0.0909091 0 0.980392 0.0909091 0 
1.07843 0.0909091 0 1.17647 0.0909091 0 1.27451 0.0909091 0 
1.37255 0.0909091 0 1.47059 0.0909091 0 1.56863 0.0909091 0 
1.66667 0.0909091 0 1.76471 0.0909091 0 1.86275 0.0909091 0 
1.96078 0.0909091 0 2.05882 0.0909091 0 2.15686 0.0909091 0 
2.2549 0.0909091 0 2.35294 0.0909091 0 2.45098 0.0909091 0 
2.54902 0.0909091 0 2.64706 0.0909091 0 2.7451 0.0909091 0 
2.84314 0.0909091 0 2.94118 0.0909091 0 3.03922 0.0909091 0 
3.13725 0.0909091 0 3.23529 0.0909091 0 3.33333 0.0909091 0 
3.43137 0.0909091 0 3.52941 0.0909091 0 3.62745 0.0909091 0 
3.72549 0.0909091 0 3.82353 0.0909091 0 3.92157 0.0909091 0 
4.01961 0.0909091 0 4.11765 0.0909091 0 4.21569 0.0909091 0 
4.31373 0.0909091 0 4.41176 0.0909091 0 4.5098 0.0909091 0 
4.60784 0.0909091 0 4.70588 0.0909091 0 4.80392 0.0909091 0 
4.90196 0.0909091 0 5 0.0909091 0 5.09804 0.0909091 0 
5.19608 0.0909091 0 5.29412 0.0909091 0 5.39216 0.0909091 0 
5.4902 0.0909091 0 5.58824 0.0909091 0 5.68627 0.0909091 0 
5.78431 0.0909091 0 5.88235 0.0909091 0 5.98039 0.0909091 0 
6.07843 0.0909091 0 6.17647 0.0909091 0 6.27451 0.0909091 0 
6.37255 0.0909091 0 6.47059 0.0909091 0 6.56863 0.0909091 0 
6.66667 0.0909091 0 6.76471 0.0909091 0 6.86275 0.0909091 0 
6.96078 0.0909091 0 7.05882 0.0909091 0 7.15686 0.0909091 0 
7.2549 0.0909091 0 7.35294 0.0909091 0 7.45098 0.0909091 0 
7.54902 0.0909091 0 7.64706 0.0909091 0 7.7451 0.0909091 0 
7.84314 0.0909091 0 7.94118 0.0909091 0 8.03922 0.0909091 0 
8.13725 0.0909091 0 8.23529 0.0909091 0 8.33333 0.0909091 0 
8.43137 0.0909091 0 8.52941 0.0909091 0 8.62745 0.0909091 0 
8.72549 0.0909091 0 8.82353 0.0909091 0 8.92157 0.0909091 0 
9.01961 0.0909091 0 9.11765 0.0909091 0 9.21569 0.0909091 0 
9.31373 0.0909091 0 9.41177 0.0909091 0 9.5098 0.0909091 0 
9.60784 0.0909091 0 9.70588 0.0909091 0 9.80392 0.0909091 0 
9.90196 0.0909091 0 10 0.0909091 0 0 0.181818 0 
0.0980392 0.181818 0 0.196078 0.181818 0 0.294118 0.181818 0 
0.392157 0.181818 0 0.490196 0.181818 0 0.588235 0.181818 0 
0.686275 0.181818 0 0.784314 0.181818 0 0.882353 0.181818 0 
0.980392 0.181818 0 1.07843 0.181818 0 1.17647 0.181818 0 
1.27451 0.181818 0 1.37255 0.181818 0 1.47059 0.181818 0 
1.56863 0.181818 0 1.66667 0.181818 0 1.76471 0.181818 0 
1.86275 0.181818 0 1.96078 0.181818 0 2.05882 0.181818 0 
2.15686 0.181818 0 2.2549 0.181818 0 2.35294 0.181818 0 
2.45098 0.181818 0 2.54902 0.181818 0 2.64706 0.181818 0 
2.7451 0.181818 0 2.84314 0.181818 0 2.94118 0.181818 0 
3.03922 0.181818 0 3.13725 0.181818 0 3.23529 0.181818 0 
3.33333 0.181818 0 3.43137 0.181818 0 3.52941 0.181818 0 
3.62745 0.181818 0 3.72549 0.181818 0 3.82353 0.181818 0 
3.92157 0.181818 0 4.01961 0.181818 0 4.11765 0.181818 0 
4.21569 0.181818 0 4.31373 0.181818 0 4.41176 0.181818 0 
4.5098 0.181818 0 4.60784 0.181818 0 4.70588 0.181818 0 
4.80392 0.181818 0 4.90196 0.181818 0 5 0.181818 0 
5.09804 0.181818 0 5.19608 0.181818 0 5.29412 0.181818 0 
5.39216 0.181818 0 5.4902 0.181818 0 5.58824 0.181818 0 
5.68627 0.181818 0 5.78431 0.181818 0 5.88235 0.181818 0 
5.98039 0.181818 0 6.07843 0.181818 0 6.17647 0.181818 0 
6.27451 0.181818 0 6.37255 0.181818 0 6.47059 0.181818 0 
6.56863 0.181818 0 6.66667 0.181818 0 6.76471 0.181818 0 
6.86275 0.181818 0 6.96078 0.181818 0 7.05882 0.181818 0 
7.15686 0.181818 0 7.2549 0.181818 0 7.35294 0.181818 0 
7.45098 0.181818 0 7.54902 0.181818 0 7.64706 0.181818 0 
7.7451 0.181818 0 7.84314 0.181818 0 7.94118 0.181818 0 
8.03922 0.181818 0 8.13725 0.181818 0 8.23529 0.181818 0 
8.33333 0.181818 0 8.43137 0.181818 0 8.52941 0.181818 0 
8.62745 0.181818 0 8.72549 0.181818 0 8.82353 0.181818 0 
8.92157 0.181818 0 9.01961 0.181818 0 9.11765 0.181818 0 
9.21569 0.181818 0 9.31373 0.181818 0 9.41177 0.181818 0 
9.5098 0.181818 0 9.60784 0.181818 0 9.70588 0.181818 0 
9.80392 0.181818 0 9.90196 0.181818 0 10 0.181818 0 
0 0.272727 0 0.0980392 0.272727 0 0.196078 0.272727 0 
0.294118 0.272727 0 0.392157 0.272727 0 0.490196 0.272727 0 
0.588235 0.272727 0 0.686275 0.272727 0 0.784314 0.272727 0 
0.882353 0.272727 0 0.980392 0.272727 0 1.07843 0.272727 0 
1.17647 0.272727 0 1.27451 0.272727 0 1.37255 0.272727 0 
1.47059 0.272727 0 1.56863 0.272727 0 1.66667 0.272727 0 
1.76471 0.272727 0 1.86275 0.272727 0 1.96078 0.272727 0 
2.05882 0.272727 0 2.15686 0.272727 0 2.2549 0.272727 0 
2.35294 0.272727 0 2.45098 0.272727 0 2.54902 0.272727 0 
2.64706 0.272727 0 2.7451 0.272727 0 2.84314 0.272727 0 
2.94118 0.272727 0 3.03922 0.272727 0 3.13725 0.272727 0 
3.23529 0.272727 0 3.33333 0.272727 0 3.43137 0.272727 0 
3.52941 0.272727 0 3.62745 0.272727 0 3.72549 0.272727 0 
3.82353 0.272727 0 3.92157 0.272727 0 4.01961 0.272727 0 
4.11765 0.272727 0 4.21569 0.272727 0 4.31373 0.272727 0 
4.41176 0.272727 0 4.5098 0.272727 0 4.60784 0.272727 0 
4.70588 0.272727 0 4.80392 0.272727 0 4.90196 0.272727 0 
5 0.272727 0 5.09804 0.272727 0 5.19608 0.272727 0 
5.29412 0.272727 0 5.39216 0.272727 0 5.4902 0.272727 0 
5.58824 0.272727 0 5.68627 0.272727 0 5.78431 0.272727 0 
5.88235 0.272727 0 5.98039 0.272727 0 6.07843 0.272727 0 
6.17647 0.272727 0 6.27451 0.272727 0 6.37255 0.272727 0 
6.47059 0.272727 0 6.56863 0.272727 0 6.66667 0.272727 0 
6.76471 0.272727 0 6.86275 0.272727 0 6.96078 0.272727 0 
7.05882 0.272727 0 7.15686 0.272727 0 7.2549 0.272727 0 
7.35294 0.272727 0 7.45098 0.272727 0 7.54902 0.272727 0 
7.64706 0.272727 0 7.7451 0.272727 0 7.84314 0.272727 0 
7.94118 0.272727 0 8.03922 0.272727 0 8.13725 0.272727 0 
8.23529 0.272727 0 8.33333 0.272727 0 8.43137 0.272727 0 
8.52941 0.272727 0 8.62745 0.272727 0 8.72549 0.272727 0 
8.82353 0.272727 0 8.92157 0.272727 0 9.01961 0.272727 0 
9.11765 0.272727 0 9.21569 0.272727 0 9.31373 0.272727 0 
9.41177 0.272727 0 9.5098 0.272727 0 9.60784 0.272727 0 
9.70588 0.272727 0 9.80392 0.272727 0 9.90196 0.272727 0 
10 0.272727 0 0 0.363636 0 0.0980392 0.363636 0 
0.196078 0.363636 0 0.294118 0.363636 0 0.392157 0.363636 0 
0.490196 0.363636 0 0.588235 0.363636 0 0.686275 0.363636 0 
0.784314 0.363636 0 0.882353 0.363636 0 0.980392 0.363636 0 
1.07843 0.363636 0 1.17647 0.363636 0 1.27451 0.363636 0 
1.37255 0.363636 0 1.47059 0.363636 0 1.56863 0.363636 0 
1.66667 0.363636 0 1.76471 0.363636 0 1.86275 0.363636 0 
1.96078 0.363636 0 2.05882 0.363636 0 2.15686 0.363636 0 
2.2549 0.363636 0 2.35294 0.363636 0 2.45098 0.363636 0 
2.54902 0.363636 0 2.64706 0.363636 0 2.7451 0.363636 0 
2.84314 0.363636 0 2.94118 0.363636 0 3.03922 0.363636 0 
3.13725 0.363636 0 3.23529 0.363636 0 3.33333 0.363636 0 
3.43137 0.363636 0 3.52941 0.363636 0 3.62745 0.363636 0 
3.72549 0.363636 0 3.82353 0.363636 0 3.92157 0.363636 0 
4.01961 0.363636 0 4.11765 0.363636 0 4.21569 0.363636 0 
4.31373 0.363636 0 4.41176 0.363636 0 4.5098 0.363636 0 
4.60784 0.363636 0 4.70588 0.363636 0 4.80392 0.363636 0 
4.90196 0.363636 0 5 0.363636 0 5.09804 0.363636 0 
5.19608 0.363636 0 5.29412 0.363636 0 5.39216 0.363636 0 
5.4902 0.363636 0 5.58824 0.363636 0 5.68627 0.363636 0 
5.78431 0.363636 0 5.88235 0.363636 0 5.98039 0.363636 0 
6.07843 0.363636 0 6.17647 0.363636 0 6.27451 0.363636 0 
6.37255 0.363636 0 6.47059 0.363636 0 6.56863 0.363636 0 
6.66667 0.363636 0 6.76471 0.363636 0 6.86275 0.363636 0 
6.96078 0.363636 0 7.05882 0.363636 0 7.15686 0.363636 0 
7.2549 0.363636 0 7.35294 0.363636 0 7.45098 0.363636 0 
7.54902 0.363636 0 7.64706 0.363636 0 7.7451 0.363636 0 
7.84314 0.363636 0 7.94118 0.363636 0 8.03922 0.363636 0 
8.13725 0.363636 0 8.23529 0.363636 0 8.33333 0.363636 0 
8.43137 0.363636 0 8.52941 0.363636 0 8.62745 0.363636 0 
8.72549 0.363636 0 8.82353 0.363636 0 8.92157 0.363636 0 
9.01961 0.363636 0 9.11765 0.363636 0 9.21569 0.363636 0 
9.31373 0.363636 0 9.41177 0.363636 0 9.5098 0.363636 0 
9.60784 0.363636 0 9.70588 0.363636 0 9.80392 0.363636 0 
9.90196 0.363636 0 10 0.363636 0 0 0.454545 0 
0.0980392 0.454545 0 0.196078 0.454545 0 0.294118 0.454545 0 
0.392157 0.454545 0 0.490196 0.454545 0 0.588235 0.454545 0 
0.686275 0.454545 0 0.784314 0.454545 0 0.882353 0.454545 0 
0.980392 0.454545 0 1.07843 0.454545 0 1.17647 0.454545 0 
1.27451 0.454545 0 1.37255 0.454545 0 1.47059 0.454545 0 
1.56863 0.454545 0 1.66667 0.454545 0 1.76471 0.454545 0 
1.86275 0.454545 0 1.96078 0.454545 0 2.05882 0.454545 0 
2.15686 0.454545 0 2.2549 0.454545 0 2.35294 0.454545 0 
2.45098 0.454545 0 2.54902 0.454545 0 2.64706 0.454545 0 
2.7451 0.454545 0 2.84314 0.454545 0 2.94118 0.454545 0 
[...]
CELL_DATA 2244
FIELD FieldData 1
pressure 1 2244 double
-3.7933104815 -3.173023371 -3.3380082974 -3.3926461707 -3.3992103512 -3.3837544844 -3.3575969466 -3.326026789 -3.2917387617 
-3.2561939781 -3.2201954716 -3.1841657771 -3.148302554 -3.1126748944 -3.0772843284 -3.0421013384 -3.0070855807 -2.9721982929 
-2.9374065383 -2.9026839237 -2.8680101118 -2.8333698956 -2.798752192 -2.7641491101 -2.7295551586 -2.6949666057 -2.6603809813 
-2.6257967009 -2.5912127901 -2.5566286842 -2.5220440881 -2.4874588785 -2.4528730369 -2.4182866056 -2.3836996588 -2.3491122838 
-2.3145245706 -2.2799366045 -2.2453484638 -2.2107602174 -2.1761719253 -2.1415836384 -2.1069953997 -2.0724072451 -2.0378192041 
-2.003231301 -1.9686435553 -1.9340559827 -1.8994685957 -1.8648814037 -1.8302944138 -1.795707631 -1.7611210584 -1.7265346973 
-1.6919485475 -1.657362607 -1.6227768726 -1.5881913391 -1.5536059997 -1.5190208456 -1.4844358656 -1.4498510461 -1.4152663704 
-1.3806818182 -1.3460973648 -1.3115129807 -1.2769286299 -1.2423442697 -1.2077598485 -1.1731753046 -1.1385905661 -1.1040055473 
-1.0694201463 -1.0348342501 -1.000247732 -0.96566044711 -0.93107223325 -0.89648293565 -0.86189241186 -0.82730056009 -0.79270736976 
-0.75811299387 -0.72351779264 -0.68892249008 -0.65432845799 -0.61973808642 -0.58515533333 -0.55058655029 -0.51604172449 -0.48153636555 
-0.44709446303 -0.41275342979 -0.37857322989 -0.34465527283 -0.31118532676 -0.27853591645 -0.24751225772 -0.21992609862 -0.19984851841 
-0.19599554516 0 0 -4.1015057918 -3.2141871377 -3.3153123037 -3.3623452168 -3.3741992791 -3.36548949 
-3.3449349862 -3.3175358661 -3.2862087121 -3.2526968201 -3.2180506928 -3.1828921171 -3.1475719898 -3.1122720325 -3.0770724561 
-3.0419972124 -3.0070416645 -2.9721847144 -2.9374070375 -2.9026899008 -2.8680172102 -2.8333760761 -2.7987566527 -2.7641516836 
-2.7295559789 -2.6949659273 -2.660379085 -2.625793849 -2.5912092071 -2.5566245532 -2.522039553 -2.4874540495 -2.4528679966 
-2.4182814151 -2.3836943625 -2.3491069139 -2.3145191501 -2.2799311501 -2.2453429873 -2.2107547275 -2.1761664286 -2.1415781399 
-2.1069899037 -2.0724017552 -2.0378137237 -2.0032258331 -1.9686381031 -1.9340505493 -1.8994631839 -1.8648760166 -1.8302890544 
-1.7957023022 -1.7611157629 -1.7265294377 -1.6919433262 -1.6573574261 -1.6227717337 -1.5881862435 -1.553600948 -1.5190158378 
-1.484430901 -1.4498461229 -1.4152614858 -1.3806769681 -1.3460925439 -1.3115081818 -1.2769238443 -1.2423394869 -1.2077550561 
-1.1731704881 -1.1385857104 -1.1040006364 -1.0694151612 -1.0348291755 -1.0002425617 -0.96565518674 -0.93106689558 -0.89647757202 
-0.86188712576 -0.82729553675 -0.79270292471 -0.75810967863 -0.72351643817 -0.68892434122 -0.65433542135 -0.61975305754 -0.58518269302 
-0.55063293542 -0.51611725197 -0.48165662389 -0.44728381873 -0.41305053929 -0.37903996842 -0.34538986764 -0.31233673095 -0.28030154868 
-0.25005400063 -0.22300930973 -0.20169820221 -0.19029680186 0 0 -4.2750246858 -3.2932135195 -3.334480127 
-3.359095731 -3.3647769951 -3.3558924182 -3.3370040158 -3.3115519554 -3.2819246971 -3.2497368318 -3.2160584357 -3.1815779119 
-3.1467186436 -3.111725006 -3.0767257714 -3.0417794003 -3.006905449 -2.972103297 -2.9373595461 -2.9026633001 -2.8680033001 
-2.8333696942 -2.7987545708 -2.7641519122 -2.7295573194 -2.6949676821 -2.6603808689 -2.6257954675 -2.5912105786 -2.5566256597 
-2.5220404103 -2.4874546885 -2.4528684535 -2.4182817251 -2.3836945575 -2.3491070213 -2.3145191923 -2.2799311453 -2.2453429497 
-2.2107546682 -2.1761663557 -2.1415780597 -2.1069898206 -2.0724016723 -2.0378136432 -2.0032257564 -1.9686380309 -1.9340504819 
-1.8994631214 -1.8648759588 -1.8302890007 -1.795702252 -1.7611157155 -1.7265293921 -1.6919432813 -1.6573573808 -1.6227716865 
-1.5881861929 -1.5536008921 -1.5190157745 -1.4844308279 -1.4498460373 -1.4152613845 -1.3806768475 -1.3460923998 -1.3115080095 
-1.2769236384 -1.2423392415 -1.2077547656 -1.1731701427 -1.1385853049 -1.1040001679 -1.0694146115 -1.0348285324 -1.0002418053 
-0.9656543007 -0.93106590749 -0.89647650165 -0.86188600246 -0.82729440494 -0.79270183749 -0.7581086439 -0.72351578067 -0.68892433066 
-0.65433644579 -0.6197556973 -0.58518779496 -0.55064172274 -0.5161314758 -0.4816787359 -0.44731703912 -0.41309833881 -0.37910342796 
-0.34545848818 -0.31236088512 -0.28011719179 -0.24919163847 -0.22024284705 -0.19406128789 -0.17113656619 0 0 
-4.376588461 -3.363351714 -3.3658982493 -3.3688467682 -3.364580385 -3.3519867808 -3.3323023293 -3.3072542397 -3.2784166154 
-3.2470451074 -3.2140720234 -3.1801507204 -3.1457132592 -3.1110277664 -3.0762487736 -3.0414572841 -3.0066899357 -2.9719611907 
-2.9372689954 -2.9026071127 -2.8679697083 -2.83335069 -2.798744764 -2.7641477257 -2.72955642 -2.6949685794 -2.660382636 
-2.625797548 -2.5912126552 -2.5566275661 -2.5220420725 -2.4874560871 -2.4528695989 -2.418282643 -2.3836952794 -2.3491075795 
-2.3145196171 -2.2799314634 -2.2453431842 -2.210754838 -2.1761664765 -2.141578144 -2.1069898784 -2.0724017115 -2.0378136697 
-2.003225775 -1.9686380451 -1.9340504943 -1.8994631341 -1.8648759731 -1.8302890177 -1.7957022724 -1.7611157397 -1.7265294205 
-1.6919433141 -1.6573574182 -1.6227717287 -1.5881862399 -1.5536009442 -1.519015832 -1.4844308912 -1.4498461069 -1.4152614612 
-1.3806769324 -1.3460924943 -1.3115081157 -1.2769237579 -1.2423393772 -1.2077549261 -1.1731703194 -1.1385854847 -1.104000335 
-1.0694147915 -1.0348287316 -1.0002420262 -0.96565453971 -0.93106613616 -0.8964766781 -0.86188605085 -0.82729419074 -0.79270112856 
-0.75810705665 -0.7235124441 -0.68891859259 -0.65432687178 -0.61974009181 -0.58516278313 -0.55060209471 -0.5160691324 -0.48158091957 
-0.44716323558 -0.41285458145 -0.37871137353 -0.34481384264 -0.31127033688 -0.2782133426 -0.24577074354 -0.2139757196 -0.18254140719 
-0.15037041832 0 0 -4.4389794825 -3.4166211215 -3.396471997 -3.3828677021 -3.3687782931 -3.3511975627 
-3.3294308186 -3.3038554097 -3.2752308312 -3.244361485 -3.2119485377 -3.1785393999 -3.1445275171 -3.1101760308 -3.0756493192 
-3.0410431588 -3.0064091774 -2.9717726752 -2.9371461251 -2.9025294277 -2.8679224201 -2.8333233992 -2.7987303077 -2.7641412614 
-2.7295547351 -2.6949695871 -2.6603850139 -2.6258004845 -2.5912156738 -2.5566304056 -2.5220446063 -2.4874582702 -2.4528714331 
-2.4182841551 -2.3836965076 -2.3491085654 -2.3145204013 -2.2799320829 -2.2453436713 -2.2107552202 -2.1761667766 -2.1415783808 
-2.1069900671 -2.0724018644 -2.0378137966 -2.0032258835 -1.9686381415 -1.9340505833 -1.8994632195 -1.8648760579 -1.8302891044 
-1.7957023629 -1.7611158358 -1.7265295238 -1.6919434261 -1.6573575404 -1.6227718629 -1.588186388 -1.5536011086 -1.5190160154 
-1.484431097 -1.4498463392 -1.4152617251 -1.3806772339 -1.3460928403 -1.3115085166 -1.2769242215 -1.2423399023 -1.2077555032 
-1.1731709825 -1.1385862575 -1.1040012409 -1.069415837 -1.0348299269 -1.0002433744 -0.965656027 -0.9310677157 -0.89647825518 
-0.86188745086 -0.82729510992 -0.7927010579 -0.75810516207 -0.72350735545 -0.68890802203 -0.6543079627 -0.61970807806 -0.5851104089 
-0.55051830832 -0.5159370774 -0.48137475295 -0.44684302918 -0.41235798587 -0.3779398055 -0.3436095144 -0.30937851808 -0.27522261054 
-0.24102561914 -0.20646945866 -0.17084207141 -0.13275057484 0 0 -4.4785582629 -3.454938849 -3.4218341027 
-3.3967367853 -3.3744995752 -3.3519844147 -3.327666387 -3.30106794 -3.2722924339 -3.2417061701 -3.2097448232 -3.1768096239 
-3.1432234812 -3.1092233747 -3.0749712609 -3.040571543 -3.0060882764 -2.9715591051 -2.9370064116 -2.9024412541 -2.8678690791 
-2.8332930292 -2.7987146862 -2.7641348065 -2.7295537344 -2.6949716249 -2.6603885588 -2.6258045973 -2.591219805 -2.5566342563 
-2.5220480351 -2.4874612305 -2.4528739332 -2.4182862315 -2.3836982108 -2.3491099495 -2.3145215186 -2.279932981 -2.2453443919 
-2.2107557989 -2.1761672431 -2.1415787596 -2.1069903784 -2.0724021244 -2.0378140185 -2.0032260779 -1.9686383167 -1.9340507462 
-1.8994633755 -1.8648762114 -1.8302892591 -1.795702522 -1.7611160022 -1.7265297002 -1.6919436153 -1.6573577453 -1.6227720867 
-1.5881866345 -1.5536013821 -1.5190163211 -1.4844314411 -1.4498467293 -1.4152621702 -1.3806777454 -1.3460934285 -1.3115091837 
-1.2769249821 -1.242340787 -1.2077565452 -1.173172202 -1.1385876849 -1.1040029087 -1.069417773 -1.0348321553 -1.0002459087 
-0.96565885749 -0.93107079136 -0.89648145691 -0.86189054888 -0.82729769818 -0.79270245557 -0.75810426813 -0.72350244556 -0.68889611941 
-0.65428468753 -0.61966717745 -0.58504207883 -0.55040771688 -0.51576189821 -0.48110138505 -0.44642096799 -0.41171139831 -0.37695511526 
-0.34211767219 -0.30713119679 -0.27186404976 -0.23606878127 -0.19930077411 -0.16080842075 -0.11942395975 0 0 
-4.5039618893 -3.48161915 -3.4411983714 -3.4085344471 -3.3801795759 -3.3534751415 -3.326694124 -3.298911437 -3.2697794641 
-3.2393063973 -3.2076800582 -3.1751481833 -3.1419494551 -3.1082822788 -3.074297247 -3.0401017802 -3.0057692292 -2.9713482037 
-2.936870379 -2.902356635 -2.8678190958 -2.8332657653 -2.7987018861 -2.7641308748 -2.7295549603 -2.6949756056 -2.6603937829 
-2.6258101498 -2.591225162 -2.5566391449 -2.5220523384 -2.4874649252 -2.4528770486 -2.4182888213 -2.383700342 -2.3491116906 
-2.314522934 -2.2799341289 -2.2453453234 -2.210756556 -2.1761678617 -2.1415792695 -2.1069908037 -2.072402485 -2.0378143305 
-2.0032263541 -1.9686385676 -1.9340509803 -1.8994635995 -1.8648764311 -1.8302894793 -1.795702747 -1.7611162358 -1.7265299463 
-1.6919438776 -1.6573580279 -1.6227723943 -1.5881869723 -1.5536017562 -1.5190167388 -1.4844319112 -1.4498472622 -1.4152627784 
-1.3806784363 -1.3460942185 -1.3115101021 -1.2769260562 -1.2423420453 -1.2077580242 -1.1731739398 -1.1385897259 -1.1040053011 
-1.0694205652 -1.0348353934 -1.000249629 -0.96566307447 -0.93107547819 -0.89648651598 -0.86189576564 -0.82730267092 -0.79270648997 
-0.75810622167 -0.72350050104 -0.68888745374 -0.65426449484 -0.61962833929 -0.5849743922 -0.55029536108 -0.51558135266 -0.48081771762 
-0.44598282999 -0.41104407758 -0.37595146242 -0.3406272778 -0.30494977362 -0.26872825868 -0.23166790633 -0.19332616065 -0.15307243463 
-0.11008232926 0 0 -4.5199992814 -3.4994102309 -3.454931154 -3.4175255233 -3.3849480574 -3.3550891515 
-3.3262861184 -3.297422061 -3.2678767506 -3.2374039823 -3.2059954039 -3.1737663149 -3.140876454 -3.1074839817 -3.0737241589 
-3.039703317 -3.0055006542 -2.9711730668 -2.936760385 -2.9022907865 -2.8677825882 -2.8332481993 -2.7986961115 -2.7641320819 
-2.7295599894 -2.6949824383 -2.6604011753 -2.6258173734 -2.591231824 -2.5566450649 -2.522057466 -2.4874692821 -2.4528806975 
-2.4182918512 -2.3837028398 -2.3491137391 -2.3145246083 -2.2799354948 -2.2453464368 -2.2107574682 -2.1761686144 -2.1415798961 
-2.1069913321 -2.0724029377 -2.0378147258 -2.003226707 -1.96863889 -1.934051282 -1.8994638885 -1.8648767142 -1.8302897621 
-1.7957030346 -1.7611165329 -1.7265302574 -1.6919442075 -1.6573583817 -1.6227727776 -1.5881873916 -1.5536022192 -1.5190172544 
-1.4844324901 -1.4498479165 -1.4152635189 -1.3806792875 -1.3460952045 -1.3115112501 -1.2769273991 -1.2423436214 -1.2077598791 
-1.1731761256 -1.1385923022 -1.1040083347 -1.0694241284 -1.034839561 -1.0002544731 -0.96566865418 -0.93108182334 -0.89649360124 
-0.86190346994 -0.82731071513 -0.79271434266 -0.75811295836 -0.72350459525 -0.68888646679 -0.65425461456 -0.61960340612 -0.5849246953 
-0.55020719098 -0.51543415527 -0.4805809724 -0.44561244624 -0.4104773869 -0.37510152296 -0.33937755908 -0.30315198423 -0.2662085242 
-0.22825044175 -0.18888749804 -0.14764040654 -0.10398499977 0 0 -4.529418654 -3.5102306174 -3.4636091785 
-3.4234677553 -3.3882925989 -3.3563826373 -3.3261931584 -3.2965407994 -3.2666585837 -3.2361439614 -3.2048583145 -3.1728237813 
-3.140141616 -3.1069383265 -3.0733357193 -3.0394376187 -3.0053263839 -2.9710642154 -2.936696873 -2.9022574788 -2.8677686819 
-2.8332462669 -2.7987011395 -2.7641407662 -2.7295702166 -2.6949929108 -2.6604111418 -2.6258264406 -2.5912398266 -2.5566519762 
-2.522063336 -2.4874742101 -2.4528848002 -2.4182952421 -2.3837056288 -2.3491160259 -2.314526481 -2.2799370293 -2.2453476979 
-2.2107585084 -2.176169478 -2.1415806213 -2.106991949 -2.072403471 -2.0378151955 -2.0032271293 -1.968639278 -1.9340516464 
-1.8994642382 -1.8648770565 -1.8302901034 -1.7957033805 -1.7611168888 -1.7265306284 -1.6919445989 -1.6573587993 -1.6227732279 
-1.5881878819 -1.5536027582 -1.5190178523 -1.4844331588 -1.4498486697 -1.4152643782 -1.3806802746 -1.3460963466 -1.3115125792 
-1.2769289541 -1.2423454482 -1.2077620323 -1.1731786695 -1.1385953116 -1.1040118961 -1.06942834 -1.0348445318 -1.0002603206 
-0.96567549883 -0.93108977893 -0.89650275815 -0.86191386805 -0.827322301 -0.79272690311 -0.75812601904 -0.72351726701 -0.68889721343 
-0.65426090201 -0.61960117018 -0.58490764546 -0.55016536548 -0.51535248767 -0.48043802066 -0.44537702416 -0.4101056389 -0.3745337718 
-0.33853607177 -0.30194231465 -0.26452780816 -0.22600871083 -0.18604865416 -0.14428801646 -0.10040953143 0 0 
-4.5337427685 -3.5152594189 -3.4676874894 -3.4262956607 -3.3899121801 -3.3570362577 -3.3261876689 -3.2961577312 -3.2661130544 
-3.235577876 -3.204351462 -3.1724109214 -3.1398289066 -3.1067162916 -3.0731882134 -3.0393472153 -3.0052772614 -2.9710436073 
-2.9366949334 -2.9022666743 -2.8677839067 -2.8332641721 -2.7987196066 -2.7641585219 -2.7295865545 -2.6950074991 -2.6604238866 
-2.6258373928 -2.591249118 -2.5566597788 -2.5220698404 -2.487479599 -2.4528892431 -2.4182988922 -2.3837086211 -2.349118477 
-2.3145284902 -2.2799386803 -2.2453490604 -2.2107596399 -2.1761704256 -2.1415814231 -2.106992637 -2.0724040711 -2.0378157285 
-2.0032276121 -1.9686397244 -1.9340520675 -1.8994646433 -1.8648774533 -1.8302904986 -1.7957037801 -1.7611172984 -1.7265310535 
-1.6919450453 -1.6573592731 -1.622773736 -1.5881884324 -1.5536033603 -1.5190185172 -1.4844338996 -1.4498495044 -1.4152653271 
-1.380681362 -1.3460976022 -1.3115140387 -1.2769306607 -1.2423474537 -1.2077643991 -1.173181472 -1.1385986388 -1.1040158532 
-1.069433051 -1.0348501418 -1.0002669971 -0.9656834331 -0.93109918509 -0.89651386975 -0.86192693025 -0.82733755545 -0.79274456183 
-0.75814622087 -0.72354000735 -0.68892223264 -0.65428751126 -0.61962798578 -0.58493220483 -0.55018352203 -0.51535778311 -0.48042027739 
-0.44532124093 -0.40999019043 -0.37432890397 -0.33820335338 -0.3014351773 -0.26379643906 -0.22501131217 -0.18477307909 -0.14278454887 
-0.098832174938 0 0 -4.533711259 -3.515200488 -3.4676503227 -3.4263001468 -3.3899651285 -3.3571344317 
-3.3263221175 -3.2963173115 -3.2662866723 -3.2357557403 -3.2045257052 -3.1725758032 -3.1399807175 -3.106853057 -3.0733092903 
-3.0394529645 -3.0053686694 -2.9711219111 -2.9367615131 -2.9023228778 -2.867831084 -2.8333036077 -2.7987524627 -2.7641858215 
-2.7296091735 -2.6950261928 -2.6604392968 -2.625850066 -2.591259518 -2.556668298 -2.5220768075 -2.4874852899 -2.4528938882 
-2.4183026831 -2.3837117169 -2.3491210094 -2.3145305676 -2.2799403918 -2.2453504789 -2.210760825 -2.1761714257 -2.1415822773 
-2.1069933768 -2.0724047224 -2.0378163123 -2.0032281454 -1.9686402208 -1.9340525383 -1.8994650977 -1.8648778991 -1.8302909426 
-1.7957042283 -1.7611177564 -1.7265315269 -1.69194554 -1.6573597953 -1.6227742929 -1.5881890322 -1.5536040127 -1.5190192336 
-1.484434695 -1.4498503963 -1.4152663365 -1.3806825145 -1.3460989287 -1.3115155772 -1.2769324571 -1.2423495639 -1.2077668909 
-1.173184428 -1.1386021589 -1.1040200588 -1.0694380892 -1.0348561911 -1.0002742736 -0.96569219875 -0.93110975699 -0.89652663193 
-0.86194234769 -0.82735619109 -0.79276709701 -0.75817347958 -0.72357298424 -0.68896212425 -0.65433574867 -0.61968626621 -0.58500251873 
-0.55026816022 -0.51545934471 -0.48054151674 -0.4454649419 -0.41015885318 -0.37452411944 -0.33842474284 -0.30167930809 -0.26405541768 
-0.22527200068 -0.18501688475 -0.14298977848 -0.098979407343 0 0 -4.5292924517 -3.5099944775 -3.463415742 
-3.4233859777 -3.3883570924 -3.3565959307 -3.3265346396 -3.2969771682 -3.2671528643 -3.2366618877 -3.2053719556 -3.1733128492 
-3.1405931509 -3.1073454819 -3.0736962384 -3.0397523589 -3.005598112 -2.9712968696 -2.9368947379 -2.9024244502 -2.8679087898 
-2.833363361 -2.7987986856 -2.7642218205 -2.7296373825 -2.6950484112 -2.6604568834 -2.6258640491 -2.5912706809 -2.5566772414 
-2.5220839955 -2.487491084 -2.4528985723 -2.4183064814 -2.3837148075 -2.3491235346 -2.3145326414 -2.2799421057 -2.2453519067 
-2.210762026 -2.1761724478 -2.1415831591 -2.1069941489 -2.0724054094 -2.0378169344 -2.0032287189 -1.9686407589 -1.9340530518 
-1.8994655955 -1.8648783886 -1.8302914302 -1.7957047198 -1.7611182573 -1.7265320427 -1.6919460761 -1.6573603581 -1.6227748892 
-1.5881896701 -1.553604702 -1.5190199859 -1.4844355251 -1.4498513212 -1.4152673771 -1.3806836964 -1.3461002833 -1.3115171426 
-1.2769342802 -1.2423517023 -1.2077694154 -1.1731874252 -1.1386057362 -1.1040243487 -1.0694432562 -1.0348624398 -1.0002818603 
-0.96570144567 -0.93112107204 -0.89654053486 -0.8619595057 -0.82737746753 -0.79279361818 -0.75820672683 -0.72361492127 -0.68901537296 
-0.65440383174 -0.61977394031 -0.5851162277 -0.55041663967 -0.51565440822 -0.48079900122 -0.445805802 -0.41061017595 -0.37511960607 
-0.33920384654 -0.30268378104 -0.26532127068 -0.22681477853 -0.18680920228 -0.14493226666 -0.10087083857 0 0 
-4.5197220289 -3.4989303935 -3.4545412389 -3.4173490372 -3.3850413375 -3.355449453 -3.3268705105 -3.2981675291 -3.268716494 
-3.2382782246 -3.2068569424 -3.1745819596 -3.1416258163 -3.1081569587 -3.0743181136 -3.0402205405 -3.0059463683 -2.971554004 
-2.937083904 -2.902563552 -2.8680113179 -2.8334393211 -2.7988553991 -2.7642644134 -2.7296696008 -2.695072977 -2.660475766 
-2.6258786792 -2.5912821032 -2.556686224 -2.5220911073 -2.4874967506 -2.4529031148 -2.4183101448 -2.3837177805 -2.3491259635 
-2.3145346407 -2.2799437658 -2.245353299 -2.2107632072 -2.1761734632 -2.1415840451 -2.1069949352 -2.0724061178 -2.0378175835 
-2.0032293234 -1.968641331 -1.9340536014 -1.8994661308 -1.8648789163 -1.8302919563 -1.7957052496 -1.7611187956 -1.7265325946 
-1.6919466468 -1.6573609532 -1.6227755151 -1.5881903345 -1.5536054138 -1.5190207577 -1.4844363696 -1.4498522545 -1.415268419 
-1.3806848713 -1.3461016212 -1.3115186806 -1.2769360638 -1.2423537879 -1.2077718728 -1.1731903417 -1.1386092204 -1.1040285373 
-1.0694483216 -1.0348686014 -1.0002893987 -0.96571072307 -0.93113255956 -0.896554851 -0.86197746983 -0.82740017507 -0.79282254672 
-0.75824388642 -0.72366306756 -0.68907830966 -0.65448683927 -0.61988438068 -0.58526439112 -0.55061691264 -0.51592684875 -0.48117138179 
-0.44631611463 -0.41130936832 -0.37607389688 -0.3404952146 -0.30440603352 -0.26756748963 -0.22965065171 -0.1902272234 -0.14878641569 
-0.10480255155 0 0 -4.5034256031 -3.480771075 -3.4405399994 -3.4082504494 -3.3803335429 -3.354037423 
-3.3275804326 -3.3000166985 -3.2710014384 -3.2405590941 -3.2088990762 -3.1762905828 -3.1429905758 -3.109211395 -3.0751132965 
-3.0408098004 -3.0063776891 -2.9718671573 -2.9373101976 -2.902726807 -2.8681293788 -2.833525186 -2.7989180092 -2.7643103385 
-2.7297035343 -2.6950982636 -2.6604947848 -2.6258931238 -2.5912931828 -2.5566948062 -2.5220978189 -2.4875020481 -2.4529073341 
-2.4183135355 -2.3837205299 -2.3491282142 -2.3145365021 -2.2799453223 -2.2453546167 -2.2107643379 -2.1761744479 -2.1415849162 
-2.1069957183 -2.0724068354 -2.0378182505 -2.0032299517 -1.968641931 -1.934054182 -1.899466699 -1.864879478 -1.8302925164 
-1.7957058127 -1.761119366 -1.7265331765 -1.6919472447 -1.6573615721 -1.6227761605 -1.588191013 -1.5536061355 -1.5190215318 
-1.4844372073 -1.4498531702 -1.4152694306 -1.3806860006 -1.3461028954 -1.3115201333 -1.2769377368 -1.2423557332 -1.2077741555 
-1.1731930435 -1.1386124448 -1.1040324157 -1.0694530224 -1.0348743419 -1.0002964619 -0.96571948068 -0.93114350438 -0.89656864261 
-0.86199499927 -0.82742265703 -0.79285165135 -0.75828192836 -0.72371327765 -0.68914522593 -0.65457686941 -0.62000660955 -0.58543173467 
-0.55084775227 -0.51624731264 -0.48161845367 -0.44694171003 -0.41218532912 -0.37729737591 -0.34219290177 -0.30673377818 -0.27069885409 