# vtk DataFile Version 4.1
vtk output
ASCII
DATASET STRUCTURED_GRID
DIMENSIONS 103 23 1
POINTS 2369 float
0 0 0 0.0980392 0 0 0.196078 0 0 
0.294118 0 0 0.392157 0 0 0.490196 0 0 
0.588235 0 0 0.686275 0 0 0.784314 0 0 
0.882353 0 0 0.980392 0 0 1.07843 0 0 
1.17647 0 0 1.27451 0 0 1.37255 0 0 
1.47059 0 0 1.56863 0 0 1.66667 0 0 
1.76471 0 0 1.86275 0 0 1.96078 0 0 
2.05882 0 0 2.15686 0 0 2.2549 0 0 
2.35294 0 0 2.45098 0 0 2.54902 0 0 
2.64706 0 0 2.7451 0 0 2.84314 0 0 
2.94118 0 0 3.03922 0 0 3.13725 0 0 
3.23529 0 0 3.33333 0 0 3.43137 0 0 
3.52941 0 0 3.62745 0 0 3.72549 0 0 
3.82353 0 0 3.92157 0 0 4.01961 0 0 
4.11765 0 0 4.21569 0 0 4.31373 0 0 
4.41176 0 0 4.5098 0 0 4.60784 0 0 
4.70588 0 0 4.80392 0 0 4.90196 0 0 
5 0 0 5.09804 0 0 5.19608 0 0 
5.29412 0 0 5.39216 0 0 5.4902 0 0 
5.58824 0 0 5.68627 0 0 5.78431 0 0 
5.88235 0 0 5.98039 0 0 6.07843 0 0 
6.17647 0 0 6.27451 0 0 6.37255 0 0 
6.47059 0 0 6.56863 0 0 6.66667 0 0 
6.76471 0 0 6.86275 0 0 6.96078 0 0 
7.05882 0 0 7.15686 0 0 7.2549 0 0 
7.35294 0 0 7.45098 0 0 7.54902 0 0 
7.64706 0 0 7.7451 0 0 7.84314 0 0 
7.94118 0 0 8.03922 0 0 8.13725 0 0 
8.23529 0 0 8.33333 0 0 8.43137 0 0 
8.52941 0 0 8.62745 0 0 8.72549 0 0 
8.82353 0 0 8.92157 0 0 9.01961 0 0 
9.11765 0 0 9.21569 0 0 9.31373 0 0 
9.41177 0 0 9.5098 0 0 9.60784 0 0 
9.70588 0 0 9.80392 0 0 9.90196 0 0 
10 0 0 0 0.0909091 0 0.0980392 0.0909091 0 
0.196078 0.0909091 0 0.294118 0.0909091 0 0.392157 0.0909091 0 
0.490196 0.0909091 0 0.588235 0.0909091 0 0.686275 0.0909091 0 
0.784314 0.0909091 0 0.882353 0.0909091 0 0.980392 0.0909091 0 
1.07843 0.0909091 0 1.17647 0.0909091 0 1.27451 0.0909091 0 
1.37255 0.0909091 0 1.47059 0.0909091 0 1.56863 0.0909091 0 
1.66667 0.0909091 0 1.76471 0.0909091 0 1.86275 0.0909091 0 
1.96078 0.0909091 0 2.05882 0.0909091 0 2.15686 0.0909091 0 
2.2549 0.0909091 0 2.35294 0.0909091 0 2.45098 0.0909091 0 
2.54902 0.0909091 0 2.64706 0.0909091 0 2.7451 0.0909091 0 
2.84314 0.0909091 0 2.94118 0.0909091 0 3.03922 0.0909091 0 
3.13725 0.0909091 0 3.23529 0.0909091 0 3.33333 0.0909091 0 
3.43137 0.0909091 0 3.52941 0.0909091 0 3.62745 0.0909091 0 
3.72549 0.0909091 0 3.82353 0.0909091 0 3.92157 0.0909091 0 
4.01961 0.0909091 0 4.11765 0.0909091 0 4.21569 0.0909091 0 
4.31373 0.0909091 0 4.41176 0.0909091 0 4.5098 0.0909091 0 
4.60784 0.0909091 0 4.70588 0.0909091 0 4.80392 0.0909091 0 
4.90196 0.0909091 0 5 0.0909091 0 5.09804 0.0909091 0 
5.19608 0.0909091 0 5.29412 0.0909091 0 5.39216 0.0909091 0 
5.4902 0.0909091 0 5.58824 0.0909091 0 5.68627 0.0909091 0 
5.78431 0.0909091 0 5.88235 0.0909091 0 5.98039 0.0909091 0 
6.07843 0.0909091 0 6.17647 0.0909091 0 6.27451 0.0909091 0 
6.37255 0.0909091 0 6.47059 0.0909091 0 6.56863 0.0909091 0 
6.66667 0.0909091 0 6.76471 0.0909091 0 6.86275 0.0909091 0 
6.96078 0.0909091 0 7.05882 0.0909091 0 7.15686 0.0909091 0 
7.2549 0.0909091 0 7.35294 0.0909091 0 7.45098 0.0909091 0 
7.54902 0.0909091 0 7.64706 0.0909091 0 7.7451 0.0909091 0 
7.84314 0.0909091 0 7.94118 0.0909091 0 8.03922 0.0909091 0 
8.13725 0.0909091 0 8.23529 0.0909091 0 8.33333 0.0909091 0 
8.43137 0.0909091 0 8.52941 0.0909091 0 8.62745 0.0909091 0 
8.72549 0.0909091 0 8.82353 0.0909091 0 8.92157 0.0909091 0 
9.01961 0.0909091 0 9.11765 0.0909091 0 9.21569 0.0909091 0 
9.31373 0.0909091 0 9.41177 0.0909091 0 9.5098 0.0909091 0 
9.60784 0.0909091 0 9.70588 0.0909091 0 9.80392 0.0909091 0 
9.90196 0.0909091 0 10 0.0909091 0 0 0.181818 0 
0.0980392 0.181818 0 0.196078 0.181818 0 0.294118 0.181818 0 
0.392157 0.181818 0 0.490196 0.181818 0 0.588235 0.181818 0 
0.686275 0.181818 0 0.784314 0.181818 0 0.882353 0.181818 0 
0.980392 0.181818 0 1.07843 0.181818 0 1.17647 0.181818 0 
1.27451 0.181818 0 1.37255 0.181818 0 1.47059 0.181818 0 
1.56863 0.181818 0 1.66667 0.181818 0 1.76471 0.181818 0 
1.86275 0.181818 0 1.96078 0.181818 0 2.05882 0.181818 0 
2.15686 0.181818 0 2.2549 0.181818 0 2.35294 0.181818 0 
2.45098 0.181818 0 2.54902 0.181818 0 2.64706 0.181818 0 
2.7451 0.181818 0 2.84314 0.181818 0 2.94118 0.181818 0 
3.03922 0.181818 0 3.13725 0.181818 0 3.23529 0.181818 0 
3.33333 0.181818 0 3.43137 0.181818 0 3.52941 0.181818 0 
3.62745 0.181818 0 3.72549 0.181818 0 3.82353 0.181818 0 
3.92157 0.181818 0 4.01961 0.181818 0 4.11765 0.181818 0 
4.21569 0.181818 0 4.31373 0.181818 0 4.41176 0.181818 0 
4.5098 0.181818 0 4.60784 0.181818 0 4.70588 0.181818 0 
4.80392 0.181818 0 4.90196 0.181818 0 5 0.181818 0 
5.09804 0.181818 0 5.19608 0.181818 0 5.29412 0.181818 0 
5.39216 0.181818 0 5.4902 0.181818 0 5.58824 0.181818 0 
5.68627 0.181818 0 5.78431 0.181818 0 5.88235 0.181818 0 
5.98039 0.181818 0 6.07843 0.181818 0 6.17647 0.181818 0 
6.27451 0.181818 0 6.37255 0.181818 0 6.47059 0.181818 0 
6.56863 0.181818 0 6.66667 0.181818 0 6.76471 0.181818 0 
6.86275 0.181818 0 6.96078 0.181818 0 7.05882 0.181818 0 
7.15686 0.181818 0 7.2549 0.181818 0 7.35294 0.181818 0 
7.45098 0.181818 0 7.54902 0.181818 0 7.64706 0.181818 0 
7.7451 0.181818 0 7.84314 0.181818 0 7.94118 0.181818 0 
8.03922 0.181818 0 8.13725 0.181818 0 8.23529 0.181818 0 
8.33333 0.181818 0 8.43137 0.181818 0 8.52941 0.181818 0 
8.62745 0.181818 0 8.72549 0.181818 0 8.82353 0.181818 0 
8.92157 0.181818 0 9.01961 0.181818 0 9.11765 0.181818 0 
9.21569 0.181818 0 9.31373 0.181818 0 9.41177 0.181818 0 
9.5098 0.181818 0 9.60784 0.181818 0 9.70588 0.181818 0 
9.80392 0.181818 0 9.90196 0.181818 0 10 0.181818 0 
0 0.272727 0 0.0980392 0.272727 0 0.196078 0.272727 0 
0.294118 0.272727 0 0.392157 0.272727 0 0.490196 0.272727 0 
0.588235 0.272727 0 0.686275 0.272727 0 0.784314 0.272727 0 
0.882353 0.272727 0 0.980392 0.272727 0 1.07843 0.272727 0 
1.17647 0.272727 0 1.27451 0.272727 0 1.37255 0.272727 0 
1.47059 0.272727 0 1.56863 0.272727 0 1.66667 0.272727 0 
1.76471 0.272727 0 1.86275 0.272727 0 1.96078 0.272727 0 
2.05882 0.272727 0 2.15686 0.272727 0 2.2549 0.272727 0 
2.35294 0.272727 0 2.45098 0.272727 0 2.54902 0.272727 0 
2.64706 0.272727 0 2.7451 0.272727 0 2.84314 0.272727 0 
2.94118 0.272727 0 3.03922 0.272727 0 3.13725 0.272727 0 
3.23529 0.272727 0 3.33333 0.272727 0 3.43137 0.272727 0 
3.52941 0.272727 0 3.62745 0.272727 0 3.72549 0.272727 0 
3.82353 0.272727 0 3.92157 0.272727 0 4.01961 0.272727 0 
4.11765 0.272727 0 4.21569 0.272727 0 4.31373 0.272727 0 
4.41176 0.272727 0 4.5098 0.272727 0 4.60784 0.272727 0 
4.70588 0.272727 0 4.80392 0.272727 0 4.90196 0.272727 0 
5 0.272727 0 5.09804 0.272727 0 5.19608 0.272727 0 
5.29412 0.272727 0 5.39216 0.272727 0 5.4902 0.272727 0 
5.58824 0.272727 0 5.68627 0.272727 0 5.78431 0.272727 0 
5.88235 0.272727 0 5.98039 0.272727 0 6.07843 0.272727 0 
6.17647 0.272727 0 6.27451 0.272727 0 6.37255 0.272727 0 
6.47059 0.272727 0 6.56863 0.272727 0 6.66667 0.272727 0 
6.76471 0.272727 0 6.86275 0.272727 0 6.96078 0.272727 0 
7.05882 0.272727 0 7.15686 0.272727 0 7.2549 0.272727 0 
7.35294 0.272727 0 7.45098 0.272727 0 7.54902 0.272727 0 
7.64706 0.272727 0 7.7451 0.272727 0 7.84314 0.272727 0 
7.94118 0.272727 0 8.03922 0.272727 0 8.13725 0.272727 0 
8.23529 0.272727 0 8.33333 0.272727 0 8.43137 0.272727 0 
8.52941 0.272727 0 8.62745 0.272727 0 8.72549 0.272727 0 
8.82353 0.272727 0 8.92157 0.272727 0 9.01961 0.272727 0 
9.11765 0.272727 0 9.21569 0.272727 0 9.31373 0.272727 0 
9.41177 0.272727 0 9.5098 0.272727 0 9.60784 0.272727 0 
9.70588 0.272727 0 9.80392 0.272727 0 9.90196 0.272727 0 
10 0.272727 0 0 0.363636 0 0.0980392 0.363636 0 
0.196078 0.363636 0 0.294118 0.363636 0 0.392157 0.363636 0 
0.490196 0.363636 0 0.588235 0.363636 0 0.686275 0.363636 0 
0.784314 0.363636 0 0.882353 0.363636 0 0.980392 0.363636 0 
1.07843 0.363636 0 1.17647 0.363636 0 1.27451 0.363636 0 
1.37255 0.363636 0 1.47059 0.363636 0 1.56863 0.363636 0 
1.66667 0.363636 0 1.76471 0.363636 0 1.86275 0.363636 0 
1.96078 0.363636 0 2.05882 0.363636 0 2.15686 0.363636 0 
2.2549 0.363636 0 2.35294 0.363636 0 2.45098 0.363636 0 
2.54902 0.363636 0 2.64706 0.363636 0 2.7451 0.363636 0 
2.84314 0.363636 0 2.94118 0.363636 0 3.03922 0.363636 0 
3.13725 0.363636 0 3.23529 0.363636 0 3.33333 0.363636 0 
3.43137 0.363636 0 3.52941 0.363636 0 3.62745 0.363636 0 
3.72549 0.363636 0 3.82353 0.363636 0 3.92157 0.363636 0 
4.01961 0.363636 0 4.11765 0.363636 0 4.21569 0.363636 0 
4.31373 0.363636 0 4.41176 0.363636 0 4.5098 0.363636 0 
4.60784 0.363636 0 4.70588 0.363636 0 4.80392 0.363636 0 
4.90196 0.363636 0 5 0.363636 0 5.09804 0.363636 0 
5.19608 0.363636 0 5.29412 0.363636 0 5.39216 0.363636 0 
5.4902 0.363636 0 5.58824 0.363636 0 5.68627 0.363636 0 
5.78431 0.363636 0 5.88235 0.363636 0 5.98039 0.363636 0 
6.07843 0.363636 0 6.17647 0.363636 0 6.27451 0.363636 0 
6.37255 0.363636 0 6.47059 0.363636 0 6.56863 0.363636 0 
6.66667 0.363636 0 6.76471 0.363636 0 6.86275 0.363636 0 
6.96078 0.363636 0 7.05882 0.363636 0 7.15686 0.363636 0 
7.2549 0.363636 0 7.35294 0.363636 0 7.45098 0.363636 0 
7.54902 0.363636 0 7.64706 0.363636 0 7.7451 0.363636 0 
7.84314 0.363636 0 7.94118 0.363636 0 8.03922 0.363636 0 
8.13725 0.363636 0 8.23529 0.363636 0 8.33333 0.363636 0 
8.43137 0.363636 0 8.52941 0.363636 0 8.62745 0.363636 0 
8.72549 0.363636 0 8.82353 0.363636 0 8.92157 0.363636 0 
9.01961 0.363636 0 9.11765 0.363636 0 9.21569 0.363636 0 
9.31373 0.363636 0 9.41177 0.363636 0 9.5098 0.363636 0 
9.60784 0.363636 0 9.70588 0.363636 0 9.80392 0.363636 0 
9.90196 0.363636 0 10 0.363636 0 0 0.454545 0 
0.0980392 0.454545 0 0.196078 0.454545 0 0.294118 0.454545 0 
0.392157 0.454545 0 0.490196 0.454545 0 0.588235 0.454545 0 
0.686275 0.454545 0 0.784314 0.454545 0 0.882353 0.454545 0 
0.980392 0.454545 0 1.07843 0.454545 0 1.17647 0.454545 0 
1.27451 0.454545 0 1.37255 0.454545 0 1.47059 0.454545 0 
1.56863 0.454545 0 1.66667 0.454545 0 1.76471 0.454545 0 
1.86275 0.454545 0 1.96078 0.454545 0 2.05882 0.454545 0 
2.15686 0.454545 0 2.2549 0.454545 0 2.35294 0.454545 0 
2.45098 0.454545 0 2.54902 0.454545 0 2.64706 0.454545 0 
2.7451 0.454545 0 2.84314 0.454545 0 2.94118 0.454545 0 
[...]
CELL_DATA 2244
FIELD FieldData 1
pressure 1 2244 double
-2.4781824084 -1.5167915952 -1.6250346357 -1.6648050412 -1.675496997 -1.6729771612 -1.6639281255 -1.6513950892 -1.6369076088 
-1.6213084126 -1.6050954165 -1.5885746359 -1.5719354654 -1.5552918797 -1.5387075233 -1.5222124704 -1.5058151423 -1.4895110172 
-1.4732877748 -1.4571303597 -1.4410243497 -1.4249569281 -1.4089173507 -1.3928970542 -1.3768895248 -1.36089002 -1.3448952309 
-1.3289029457 -1.3129117548 -1.2969208098 -1.2809296395 -1.2649380157 -1.2489458589 -1.2329531756 -1.2169600161 -1.2009664481 
-1.1849725413 -1.1689783601 -1.1529839599 -1.1369893871 -1.1209946789 -1.1049998647 -1.0890049672 -1.0730100038 -1.0570149876 
-1.0410199283 -1.0250248332 -1.0090297078 -0.99303455614 -0.97703938137 -0.961044186 -0.94504897213 -0.92905374149 -0.91305849562 
-0.89706323585 -0.88106796331 -0.86507267886 -0.84907738308 -0.83308207609 -0.81708675746 -0.80109142598 -0.78509607947 -0.7691007144 
-0.75310532555 -0.73710990549 -0.72111444392 -0.70511892696 -0.68912333616 -0.67312764725 -0.6571318289 -0.64113584049 -0.62513962741 
-0.60914312284 -0.59314624094 -0.57714886231 -0.56115083936 -0.54515198197 -0.52915204484 -0.51315071518 -0.49714759996 -0.48114221193 
-0.46513396528 -0.44912216711 -0.43310595338 -0.41708417616 -0.40105559091 -0.38501892145 -0.36897309028 -0.35291777609 -0.33685466828 
-0.32079021748 -0.30474156409 -0.28874910611 -0.27290263414 -0.25739443107 -0.24262397945 -0.22939566742 -0.21926504579 -0.21505255113 
-0.22125940275 0 0 -2.6786771193 -1.5382415691 -1.6083989232 -1.6442987071 -1.6584719219 -1.6600723896 
-1.6544113514 -1.6444561878 -1.6318976616 -1.6177378535 -1.6025953116 -1.5868639091 -1.5707984367 -1.5545632877 -1.5382620648 
-1.5219568807 -1.5056816972 -1.4894518607 -1.4732716669 -1.4571358238 -1.4410384913 -1.4249725679 -1.4089309186 -1.3929071428 
-1.3768959284 -1.3608931242 -1.3448956468 -1.3289013101 -1.3129086331 -1.2969166614 -1.2809248154 -1.2649327716 -1.2489403736 
-1.2329475694 -1.2169543668 -1.2009608035 -1.1849669293 -1.1689727953 -1.1529784489 -1.1369839318 -1.1209892786 -1.1049945178 
-1.0889996719 -1.0730047584 -1.057009791 -1.04101478 -1.0250197332 -1.0090246565 -0.99302955437 -0.97703443036 -0.96103928714 
-0.94504412685 -0.92904895124 -0.91305376169 -0.89705855932 -0.88106334492 -0.86506811893 -0.84907288134 -0.83307763161 -0.81708236846 
-0.80108708973 -0.78509179204 -0.76909647052 -0.75310111836 -0.73710572627 -0.72111028184 -0.70511476875 -0.68911916579 -0.67312344547 
-0.65712757309 -0.64113150543 -0.62513518185 -0.60913853441 -0.59314148231 -0.57714389894 -0.56114564889 -0.54514656268 -0.52914643173 
-0.51314500687 -0.49714200023 -0.48113709851 -0.46512998819 -0.4491204146 -0.43310825152 -0.4170932815 -0.401075897 -0.38505733171 
-0.36904039742 -0.35303079776 -0.33703950454 -0.32108708868 -0.30521164674 -0.28948329457 -0.27403045681 -0.25908674904 -0.24507222885 
-0.23272814718 -0.22332703847 -0.21898260773 -0.2231688276 0 0 -2.7925551272 -1.5863562699 -1.619411697 
-1.6414322125 -1.651666435 -1.6530146988 -1.6482865917 -1.6395176917 -1.6280746829 -1.6148627338 -1.6004862812 -1.5853540759 
-1.5697447712 -1.5538480717 -1.5377913981 -1.5216579872 -1.5054997614 -1.4893467972 -1.4732147925 -1.4571092769 -1.4410288534 
-1.4249716578 -1.4089339043 -1.3929113258 -1.3768999303 -1.3608963471 -1.3448979262 -1.3289026997 -1.3129092794 -1.296916734 
-1.2809244726 -1.264932146 -1.2489395687 -1.2329466628 -1.2169534147 -1.2009598448 -1.1849659892 -1.1689718885 -1.1529775834 
-1.1369831106 -1.1209885019 -1.1049937838 -1.0889989778 -1.0730041012 -1.0570091673 -1.0410141864 -1.0250191667 -1.0090241143 
-0.99302903379 -0.97703392896 -0.96103880265 -0.94504365712 -0.92904849418 -0.91305331523 -0.8970581213 -0.88106291305 -0.8650676907 
-0.84907245395 -0.83307720187 -0.81708193269 -0.80108664365 -0.78509133067 -0.76909598804 -0.75310060801 -0.73710518021 -0.72110969094 
-0.70511412253 -0.68911845235 -0.67312265077 -0.65712668103 -0.64113050525 -0.62513404789 -0.60913724484 -0.59314000466 -0.57714223794 
-0.56114381548 -0.5451445864 -0.52914437874 -0.51314300301 -0.49714026426 -0.48113598852 -0.4651300719 -0.44912257282 -0.43311394709 
-0.41710469765 -0.40109630992 -0.38509166626 -0.36909597507 -0.35311834327 -0.33717438421 -0.32129054171 -0.30551123843 -0.28991060683 
-0.27461145115 -0.25981507308 -0.24584604088 -0.23321403782 -0.22268606977 -0.21533580293 -0.21245759623 0 0 
-2.8598468871 -1.6304101114 -1.6391105646 -1.6475616881 -1.6514472601 -1.6502903792 -1.6448952502 -1.6362674999 -1.6252755169 
-1.6125917666 -1.59871699 -1.5840185987 -1.5687640055 -1.553145929 -1.5373010656 -1.5213240452 -1.5052781361 -1.4892036193 
-1.4731243575 -1.4570548676 -1.4409977014 -1.4249549612 -1.408925825 -1.3929081092 -1.3768992415 -1.3608967937 -1.3448987226 
-1.3289034386 -1.3129097797 -1.2969169422 -1.2809244017 -1.2649318392 -1.2489390756 -1.2329460352 -1.2169526994 -1.2009590806 
-1.184965206 -1.1689711063 -1.1529768163 -1.1369823675 -1.120987788 -1.1049931017 -1.0889983283 -1.0730034838 -1.0570085807 
-1.041013629 -1.0250186364 -1.0090236091 -0.99302855154 -0.97703346759 -0.96103836015 -0.94504323153 -0.92904808361 -0.91305291779 
-0.89705773512 -0.88106253621 -0.86506732118 -0.84907208961 -0.83307684037 -0.81708157149 -0.80108627992 -0.78509096127 -0.76909560948 
-0.75310021642 -0.73710477143 -0.72110926027 -0.70511366488 -0.6891179633 -0.67312212398 -0.6571260983 -0.6411298394 -0.62513331195 
-0.60913644131 -0.59313914373 -0.57714132609 -0.56114287456 -0.54514365826 -0.529143533 -0.51314234879 -0.49713996542 -0.4811362816 
-0.46513128669 -0.44912515301 -0.43311842281 -0.41711223113 -0.40110814826 -0.38510944398 -0.3691216499 -0.35315391681 -0.33722107339 
-0.32134673946 -0.30556793056 -0.28994167558 -0.27455410036 -0.25953192921 -0.24505476468 -0.2313622472 -0.21873962098 -0.20743975191 
-0.19743949905 0 0 -2.9016888692 -1.664507502 -1.6587802286 -1.6568391445 -1.6545179527 -1.6501118289 
-1.6432499619 -1.634135405 -1.6231543597 -1.6107074323 -1.5971485853 -1.5827697986 -1.5678029307 -1.5524270481 -1.5367768613 
-1.5209508356 -1.5050185625 -1.4890272734 -1.4730074398 -1.4569784857 -1.4409503109 -1.4249268258 -1.4089100839 -1.3929000414 
-1.3768956927 -1.3608957248 -1.3448988661 -1.3289040444 -1.3129104342 -1.2969174411 -1.2809246655 -1.2649318605 -1.2489388702 
-1.232945646 -1.216952175 -1.2009584661 -1.1849645411 -1.1689704148 -1.15297612 -1.1369816802 -1.1209871194 -1.104992458 
-1.0889977131 -1.0730028988 -1.0570080262 -1.0410131045 -1.0250181407 -1.0090231404 -0.99302810831 -0.97703304788 -0.96103796209 
-0.94504285332 -0.9290477235 -0.91305257416 -0.8970574064 -0.88106222093 -0.86506701796 -0.84907179713 -0.83307655738 -0.8170812968 
-0.80108601244 -0.78509070004 -0.76909535368 -0.75309996551 -0.73710452566 -0.72110901979 -0.70511342983 -0.68911771724 -0.67312186055 
-0.65712583487 -0.64112959165 -0.62513308261 -0.60913624307 -0.5931389963 -0.57714125322 -0.56114290886 -0.54514384293 -0.5291439222 
-0.5131430059 -0.49714095643 -0.48113765825 -0.46513304902 -0.44912716695 -0.43312021196 -0.41711338892 -0.40110758736 -0.38510501439 
-0.36910937013 -0.35312659157 -0.33716584693 -0.32124082939 -0.30537121306 -0.28958395472 -0.27391364617 -0.25840021508 -0.24308064792 
-0.22796836206 -0.21300819635 -0.19798525523 -0.18235518508 0 0 -2.9286638149 -1.6893819162 -1.6752959499 
-1.66610014 -1.658656161 -1.6510987334 -1.6425270519 -1.6326319268 -1.6214178596 -1.6090328759 -1.5956752848 -1.5815464364 
-1.5668286874 -1.5516766279 -1.5362151956 -1.5205413416 -1.5047274535 -1.488825502 -1.4728712808 -1.4568883832 -1.4408930595 
-1.4248921474 -1.408890325 -1.3928897405 -1.376891095 -1.3608943429 -1.3448991176 -1.328904968 -1.3129114866 -1.2969183409 
-1.2809252904 -1.2649321522 -1.2489388906 -1.2329454519 -1.2169518146 -1.2009579786 -1.1849639562 -1.1689697788 -1.1529754675 
-1.1369810268 -1.1209864792 -1.10499184 -1.0889971229 -1.0730023395 -1.0570074994 -1.0410126101 -1.025017678 -1.0090227081 
-0.99302770455 -0.97703267095 -0.96103761017 -0.94504252467 -0.92904741653 -0.91305228745 -0.89705713876 -0.8810619714 -0.86506678584 
-0.84907158202 -0.83307635921 -0.8170811159 -0.80108584961 -0.78509055668 -0.76909523187 -0.75309986782 -0.73710445794 -0.72110897375 
-0.70511340045 -0.68911772854 -0.6731219287 -0.65712597083 -0.64112981478 -0.62513341353 -0.60913670854 -0.5931396291 -0.57714209073 
-0.56114399246 -0.54514521469 -0.52914561737 -0.51314503831 -0.49714329187 -0.4811401674 -0.46513542612 -0.449128791 -0.43311991442 
-0.41710874258 -0.40109575868 -0.38508054724 -0.36906329103 -0.35304432242 -0.33702383962 -0.3210013496 -0.30497424049 -0.28893487084 
-0.27286503734 -0.25672597398 -0.24044128433 -0.22386919094 -0.20675951106 -0.18869102115 -0.16899271772 0 0 
-2.9462957309 -1.706897504 -1.6879642346 -1.6739225158 -1.6626095407 -1.652390553 -1.6422078476 -1.6314739308 -1.6199286274 
-1.607515281 -1.5942906938 -1.5803657425 -1.5658688608 -1.5509250922 -1.5356452603 -1.5201215102 -1.5044267125 -1.4886160505 
-1.4727296652 -1.4567955979 -1.440834214 -1.4248568109 -1.4088705733 -1.3928798549 -1.3768871181 -1.3608936461 -1.344900032 
-1.3289064776 -1.3129130355 -1.2969196055 -1.2809261527 -1.264932667 -1.2489390893 -1.2329453872 -1.2169515456 -1.2009575621 
-1.1849634427 -1.1689691998 -1.1529748397 -1.13698039 -1.1209858555 -1.1049912393 -1.0889965521 -1.0730018027 -1.0570069984 
-1.0410121452 -1.0250172485 -1.0090223126 -0.99302734131 -0.97703233808 -0.96103730579 -0.94504224707 -0.92904716419 -0.91305205917 
-0.89705693369 -0.88106178907 -0.86506662626 -0.8490714457 -0.83307624726 -0.81708103014 -0.80108579269 -0.78509053241 -0.76909524542 
-0.75309992264 -0.73710454534 -0.72110911557 -0.70511361668 -0.68911803294 -0.67312234198 -0.65712651691 -0.64113052376 -0.62513432081 
-0.60913785613 -0.59314106537 -0.57714386879 -0.5611461669 -0.54514783476 -0.52914871391 -0.51314860065 -0.49714722836 -0.48114424016 
-0.46513914557 -0.44913125083 -0.43311954621 -0.41710252963 -0.40107866858 -0.38504573125 -0.36899896339 -0.35293205145 -0.33683492046 
-0.32069178434 -0.30447746591 -0.28815176315 -0.27165093727 -0.25487494576 -0.23766938318 -0.21980130681 -0.20092927718 -0.18057043845 
-0.15807452168 0 0 -2.9576211365 -1.7186823672 -1.6969506693 -1.6797968012 -1.6657679659 -1.6535281278 
-1.642030995 -1.6305603214 -1.6186907335 -1.6062171601 -1.5930830975 -1.5793214369 -1.5650112182 -1.5502487744 -1.5351301212 
-1.5197414086 -1.5041547712 -1.4884275494 -1.4726034157 -1.4567144079 -1.4407838867 -1.4248276106 -1.4088551744 -1.3928730271 
-1.3768852704 -1.3608944177 -1.3449019609 -1.3289086564 -1.3129149504 -1.2969211171 -1.2809272348 -1.2649333231 -1.2489393733 
-1.2329453704 -1.2169513007 -1.2009571552 -1.1849629295 -1.168968623 -1.1529742365 -1.1369797752 -1.1209852436 -1.1049906534 
-1.0889960003 -1.0730012892 -1.0570065249 -1.041011712 -1.0250168546 -1.0090219563 -0.99302702073 -0.9770320511 -0.96103705043 
-0.94504202154 -0.92904696706 -0.91305188938 -0.89705679068 -0.88106167283 -0.86506653739 -0.84907138554 -0.83307621798 -0.81708103486 
-0.80108583558 -0.78509061941 -0.76909537703 -0.75310010523 -0.73710480155 -0.72110945907 -0.70511406718 -0.68911861329 -0.6731230808 
-0.65712744877 -0.64113169051 -0.62513577214 -0.60913965031 -0.59314326912 -0.57714655584 -0.56114941433 -0.54515171541 -0.52915328232 
-0.51315386835 -0.49715312245 -0.48115053594 -0.4651453597 -0.44913647649 -0.43312220588 -0.41710001325 -0.40106609279 -0.38501488382 
-0.36893871347 -0.35282444254 -0.33665222903 -0.3203926957 -0.30400133488 -0.28741140562 -0.27052464093 -0.25319846321 -0.23523050344 
-0.21634114623 -0.19615657155 -0.17419568089 -0.14986647329 0 0 -2.9643696677 -1.7258990955 -1.7026187775 
-1.6836142897 -1.6678752959 -1.6542993724 -1.6418958514 -1.6298975434 -1.617785947 -1.6052612189 -1.5921890258 -1.5785459424 
-1.5643739776 -1.5497472552 -1.5347499607 -1.5194631966 -1.5039582052 -1.4882937827 -1.4725162223 -1.4566606194 -1.4407527885 
-1.4248113769 -1.4088483054 -1.3928716673 -1.3768868288 -1.3608972278 -1.3449049784 -1.3289114166 -1.3129172375 -1.296922834 
-1.2809283924 -1.2649339863 -1.2489396305 -1.2329453132 -1.2169510136 -1.2009567104 -1.1849623854 -1.168968025 -1.1529736195 
-1.1369791634 -1.1209846534 -1.1049900881 -1.0889954722 -1.0730008043 -1.0570060844 -1.0410113156 -1.0250165008 -1.0090216432 
-0.99302674607 -0.97703181253 -0.96103684577 -0.94504184893 -0.92904682505 -0.91305177705 -0.89705670767 -0.88106161945 -0.86506651473 
-0.84907139557 -0.83307626366 -0.8170811204 -0.80108596588 -0.78509079636 -0.76909561472 -0.75310041893 -0.73710520679 -0.72110997474 
-0.70511471731 -0.68911942714 -0.67312409431 -0.65712870561 -0.64113324345 -0.62513768434 -0.60914199649 -0.59314613638 -0.57715004341 
-0.56115363168 -0.54515677731 -0.52915929874 -0.51316092611 -0.49716125359 -0.48115966565 -0.46515522307 -0.4491464884 -0.43313126096 
-0.41710617883 -0.40106612657 -0.38500335007 -0.36890597828 -0.35275636077 -0.33652813718 -0.32018157456 -0.30365832495 -0.28687283658 
-0.26970406484 -0.25198303435 -0.23348066249 -0.21389589962 -0.19284808255 -0.1698748017 -0.14443628454 0 0 
-2.9675092607 -1.7292734179 -1.7052755471 -1.6853986908 -1.6688431009 -1.6546241502 -1.6417840778 -1.6295346557 -1.6173131561 
-1.6047729998 -1.5917407564 -1.578164472 -1.5640673931 -1.5495124956 -1.5345781792 -1.5193432621 -1.503878831 -1.4882447072 
-1.4724887659 -1.4566478545 -1.4407495117 -1.4248134657 -1.4088531048 -1.3928774874 -1.3768926349 -1.3609024429 -1.3449093512 
-1.3289148475 -1.3129197706 -1.2969245711 -1.2809294621 -1.2649345219 -1.2489397568 -1.2329451397 -1.2169506318 -1.2009561938 
-1.1849617912 -1.1689673962 -1.1529729875 -1.1369785499 -1.1209840731 -1.1049895504 -1.0889949787 -1.0730003568 -1.0570056849 
-1.0410109633 -1.0250161936 -1.0090213787 -0.99302652155 -0.97703162542 -0.96103669372 -0.94504172996 -0.92904673768 -0.91305172038 
-0.89705668147 -0.88106162422 -0.86506655179 -0.84907146735 -0.83307637351 -0.81708127225 -0.80108616541 -0.78509105562 -0.76909594485 
-0.75310083448 -0.73710572564 -0.72111061895 -0.70511551425 -0.6891204105 -0.67312530543 -0.657130195 -0.6411350726 -0.62513992766 
-0.60914474358 -0.59314949424 -0.57715413857 -0.56115861181 -0.54516281168 -0.52916657647 -0.51316965065 -0.4971716309 -0.48117188224 
-0.46516940819 -0.44916265151 -0.43314919029 -0.41712527811 -0.40108515154 -0.38501998918 -0.36891634826 -0.3527539811 -0.33650254333 
-0.32011679132 -0.30353064684 -0.28665008572 -0.26934195205 -0.25142386805 -0.23265302212 -0.21271893216 -0.19123941281 -0.16776372629 
-0.14178043874 0 0 -2.9675258803 -1.729262779 -1.7052676201 -1.6854076569 -1.668876054 -1.6546820156 
-1.6418636606 -1.6296306777 -1.6174197583 -1.6048846439 -1.5918526687 -1.5782728058 -1.5641692439 -1.5496058452 -1.5346618046 
-1.5194166223 -1.5039419392 -1.4882979937 -1.4725329359 -1.4566837263 -1.4407783383 -1.4248363787 -1.4088710438 -1.3928912978 
-1.3769030708 -1.3609101629 -1.3449149204 -1.3289187286 -1.3129223487 -1.2969261586 -1.2809303103 -1.2649348303 -1.2489396823 
-1.2329448043 -1.2169501287 -1.2009555932 -1.1849611447 -1.168966741 -1.1529723496 -1.1369779465 -1.1209835149 -1.1049890435 
-1.0889945255 -1.072999957 -1.0570053366 -1.0410106641 -1.0250159403 -1.0090211688 -0.99302635196 -0.97703149323 -0.96103659636 
-0.94504166533 -0.92904670422 -0.91305171717 -0.8970567083 -0.8810616816 -0.86506664097 -0.84907159113 -0.83307653577 -0.81708147865 
-0.80108642369 -0.78509137526 -0.76909633778 -0.75310131582 -0.73710631421 -0.72111133807 -0.70511639281 -0.68912148421 -0.67312661829 
-0.65713180116 -0.64113703858 -0.62514233515 -0.60914769272 -0.59315310768 -0.57715856643 -0.56116403765 -0.54516945981 -0.52917472086 
-0.51317962585 -0.49718384552 -0.4811868356 -0.46518771095 -0.44918505078 -0.43317659927 -0.41715880815 -0.40112614213 -0.38507003107 
-0.36897730694 -0.35282792513 -0.33659163457 -0.32022327751 -0.30365657514 -0.28679611459 -0.26950701283 -0.2516039716 -0.23284074852 
-0.21290196023 -0.19140139283 -0.16788734824 -0.14185320163 0 0 -2.9644009622 -1.725833732 -1.7025496031 
-1.6835878999 -1.6679189797 -1.65442141 -1.6420902283 -1.6301498206 -1.61807826 -1.6055756977 -1.5925097521 -1.5788598571 
-1.5646711404 -1.5500207345 -1.5349955222 -1.5196788849 -1.5041438778 -1.4884506359 -1.472646337 -1.4567665263 -1.4408381318 
-1.4248791514 -1.4089012808 -1.39291239 -1.3769175617 -1.3609199368 -1.3449213546 -1.328922816 -1.3129248005 -1.2969274815 
-1.2809308637 -1.2649348691 -1.2489393871 -1.2329443027 -1.2169495107 -1.2009549217 -1.1849604632 -1.1689660787 -1.1529717256 
-1.1369773725 -1.1209829972 -1.1049885847 -1.0889941253 -1.0729996137 -1.057005047 -1.0410104249 -1.0250157489 -1.0090210201 
-0.99302624235 -0.9770314195 -0.96103655578 -0.94504165566 -0.92904672381 -0.91305176501 -0.89705678414 -0.8810617863 -0.86506677669 
-0.84907175971 -0.83307674084 -0.81708172554 -0.80108671959 -0.78509172929 -0.76909676151 -0.75310182383 -0.73710692472 -0.72111207373 
-0.7051172818 -0.68912256144 -0.67312792706 -0.65713339516 -0.64113898449 -0.6251447159 -0.60915061181 -0.5931566948 -0.57716298492 
-0.56116949457 -0.54517621976 -0.52918312512 -0.5131901193 -0.49719701497 -0.4812034647 -0.46520885933 -0.44921216829 -0.43321169024 
-0.41720466631 -0.40118668358 -0.38515076146 -0.3690859661 -0.3529753367 -0.33679281736 -0.32049883497 -0.30403414967 -0.28731155848 
-0.27020517529 -0.25253792582 -0.23406852919 -0.21448058982 -0.19337799786 -0.17028997005 -0.14468582158 0 0 
-2.9576325731 -1.7185211234 -1.6967939289 -1.6797265426 -1.66582785 -1.6537272338 -1.6423544042 -1.6309803284 -1.6191755009 
-1.6067361521 -1.5936099021 -1.5798348806 -1.5654955091 -1.5506931334 -1.5355281578 -1.5200903744 -1.5044547743 -1.4886807868 
-1.4728134691 -1.4568856125 -1.4409219565 -1.4249371973 -1.4089407953 -1.3929388063 -1.3769348687 -1.3609310042 -1.3449282087 
-1.3289268632 -1.3129270036 -1.2969284917 -1.2809311177 -1.2649346575 -1.2489389021 -1.2329436709 -1.2169488148 -1.2009542153 
-1.1849597803 -1.1689654403 -1.1529711436 -1.1369768529 -1.120982542 -1.1049881933 -1.0889937952 -1.0729993413 -1.0570048282 
-1.0410102553 -1.0250156238 -1.009020936 -0.99302619554 -0.97703140655 -0.96103657376 -0.94504170217 -0.92904679702 -0.91305186372 
-0.89705690783 -0.88106193512 -0.86506695145 -0.84907196273 -0.83307697534 -0.81708199608 -0.80108703232 -0.78509209217 -0.76909718468 
-0.75310232011 -0.73710751016 -0.72111276842 -0.70511811077 -0.68912355588 -0.67312912586 -0.65713484695 -0.64114075021 -0.62514687233 
-0.60915325625 -0.59315995154 -0.57716701418 -0.5611745052 -0.54518248732 -0.52919101815 -0.51320013763 -0.49720984618 -0.48122006772 
-0.46523058847 -0.44924095722 -0.43325032452 -0.41725718483 -0.40125896591 -0.38525137785 -0.36922738805 -0.3531756202 -0.33707787855 
-0.32090538537 -0.30461318968 -0.28813207581 -0.27135731482 -0.25413402178 -0.23623972047 -0.21736648092 -0.19710766986 -0.17495681412 
-0.15032659812 0 0 -2.9462208185 -1.706562037 -1.6876710012 -1.673792615 -1.6626945117 -1.652687971 
-1.6426834089 -1.6320800935 -1.620616703 -1.6082417694 -1.5950198291 -1.5810699682 -1.5665283311 -1.5515267675 -1.536181853 
-1.5205903896 -1.5048288294 -1.4889549332 -1.4730105462 -1.4570247914 -1.4410189177 -1.4250033332 -1.4089849695 -1.3929676675 
-1.3769532625 -1.3609423765 -1.3449349571 -1.3289306232 -1.3129288711 -1.2969291897 -1.2809311159 -1.2649342567 -1.2489382927 
-1.2329429713 -1.2169480976 -1.2009535238 -1.1849591392 -1.1689648625 -1.1529706349 -1.1369764145 -1.1209821722 -1.1049878887 
-1.0889935515 -1.0729991536 -1.0570046915 -1.0410101648 -1.0250155747 -1.0090209242 -0.99302621711 -0.97703145804 -0.96103665217 
-0.94504180499 -0.92904692225 -0.91305200992 -0.89705707415 -0.8810621213 -0.86506715795 -0.84907219092 -0.83307722751 -0.81708227557 
-0.80108734372 -0.78509244153 -0.76909757981 -0.75310277092 -0.73710802919 -0.72111337139 -0.70511881736 -0.68912439076 -0.67313011997 