# vtk DataFile Version 4.1
vtk output
ASCII
DATASET STRUCTURED_GRID
DIMENSIONS 51 51 1
POINTS 2601 float
0 0 0 0.02 0 0 0.04 0 0 
0.06 0 0 0.08 0 0 0.1 0 0 
0.12 0 0 0.14 0 0 0.16 0 0 
0.18 0 0 0.2 0 0 0.22 0 0 
0.24 0 0 0.26 0 0 0.28 0 0 
0.3 0 0 0.32 0 0 0.34 0 0 
0.36 0 0 0.38 0 0 0.4 0 0 
0.42 0 0 0.44 0 0 0.46 0 0 
0.48 0 0 0.5 0 0 0.52 0 0 
0.54 0 0 0.56 0 0 0.58 0 0 
0.6 0 0 0.62 0 0 0.64 0 0 
0.66 0 0 0.68 0 0 0.7 0 0 
0.72 0 0 0.74 0 0 0.76 0 0 
0.78 0 0 0.8 0 0 0.82 0 0 
0.84 0 0 0.86 0 0 0.88 0 0 
0.9 0 0 0.92 0 0 0.94 0 0 
0.96 0 0 0.98 0 0 1 0 0 
0 0.02 0 0.02 0.02 0 0.04 0.02 0 
0.06 0.02 0 0.08 0.02 0 0.1 0.02 0 
0.12 0.02 0 0.14 0.02 0 0.16 0.02 0 
0.18 0.02 0 0.2 0.02 0 0.22 0.02 0 
0.24 0.02 0 0.26 0.02 0 0.28 0.02 0 
0.3 0.02 0 0.32 0.02 0 0.34 0.02 0 
0.36 0.02 0 0.38 0.02 0 0.4 0.02 0 
0.42 0.02 0 0.44 0.02 0 0.46 0.02 0 
0.48 0.02 0 0.5 0.02 0 0.52 0.02 0 
0.54 0.02 0 0.56 0.02 0 0.58 0.02 0 
0.6 0.02 0 0.62 0.02 0 0.64 0.02 0 
0.66 0.02 0 0.68 0.02 0 0.7 0.02 0 
0.72 0.02 0 0.74 0.02 0 0.76 0.02 0 
0.78 0.02 0 0.8 0.02 0 0.82 0.02 0 
0.84 0.02 0 0.86 0.02 0 0.88 0.02 0 
0.9 0.02 0 0.92 0.02 0 0.94 0.02 0 
0.96 0.02 0 0.98 0.02 0 1 0.02 0 
0 0.04 0 0.02 0.04 0 0.04 0.04 0 
0.06 0.04 0 0.08 0.04 0 0.1 0.04 0 
0.12 0.04 0 0.14 0.04 0 0.16 0.04 0 
0.18 0.04 0 0.2 0.04 0 0.22 0.04 0 
0.24 0.04 0 0.26 0.04 0 0.28 0.04 0 
0.3 0.04 0 0.32 0.04 0 0.34 0.04 0 
0.36 0.04 0 0.38 0.04 0 0.4 0.04 0 
0.42 0.04 0 0.44 0.04 0 0.46 0.04 0 
0.48 0.04 0 0.5 0.04 0 0.52 0.04 0 
0.54 0.04 0 0.56 0.04 0 0.58 0.04 0 
0.6 0.04 0 0.62 0.04 0 0.64 0.04 0 
0.66 0.04 0 0.68 0.04 0 0.7 0.04 0 
0.72 0.04 0 0.74 0.04 0 0.76 0.04 0 
0.78 0.04 0 0.8 0.04 0 0.82 0.04 0 
0.84 0.04 0 0.86 0.04 0 0.88 0.04 0 
0.9 0.04 0 0.92 0.04 0 0.94 0.04 0 
0.96 0.04 0 0.98 0.04 0 1 0.04 0 
0 0.06 0 0.02 0.06 0 0.04 0.06 0 
0.06 0.06 0 0.08 0.06 0 0.1 0.06 0 
0.12 0.06 0 0.14 0.06 0 0.16 0.06 0 
0.18 0.06 0 0.2 0.06 0 0.22 0.06 0 
0.24 0.06 0 0.26 0.06 0 0.28 0.06 0 
0.3 0.06 0 0.32 0.06 0 0.34 0.06 0 
0.36 0.06 0 0.38 0.06 0 0.4 0.06 0 
0.42 0.06 0 0.44 0.06 0 0.46 0.06 0 
0.48 0.06 0 0.5 0.06 0 0.52 0.06 0 
0.54 0.06 0 0.56 0.06 0 0.58 0.06 0 
0.6 0.06 0 0.62 0.06 0 0.64 0.06 0 
0.66 0.06 0 0.68 0.06 0 0.7 0.06 0 
0.72 0.06 0 0.74 0.06 0 0.76 0.06 0 
0.78 0.06 0 0.8 0.06 0 0.82 0.06 0 
0.84 0.06 0 0.86 0.06 0 0.88 0.06 0 
0.9 0.06 0 0.92 0.06 0 0.94 0.06 0 
0.96 0.06 0 0.98 0.06 0 1 0.06 0 
0 0.08 0 0.02 0.08 0 0.04 0.08 0 
0.06 0.08 0 0.08 0.08 0 0.1 0.08 0 
0.12 0.08 0 0.14 0.08 0 0.16 0.08 0 
0.18 0.08 0 0.2 0.08 0 0.22 0.08 0 
0.24 0.08 0 0.26 0.08 0 0.28 0.08 0 
0.3 0.08 0 0.32 0.08 0 0.34 0.08 0 
0.36 0.08 0 0.38 0.08 0 0.4 0.08 0 
0.42 0.08 0 0.44 0.08 0 0.46 0.08 0 
0.48 0.08 0 0.5 0.08 0 0.52 0.08 0 
0.54 0.08 0 0.56 0.08 0 0.58 0.08 0 
0.6 0.08 0 0.62 0.08 0 0.64 0.08 0 
0.66 0.08 0 0.68 0.08 0 0.7 0.08 0 
0.72 0.08 0 0.74 0.08 0 0.76 0.08 0 
0.78 0.08 0 0.8 0.08 0 0.82 0.08 0 
0.84 0.08 0 0.86 0.08 0 0.88 0.08 0 
0.9 0.08 0 0.92 0.08 0 0.94 0.08 0 
0.96 0.08 0 0.98 0.08 0 1 0.08 0 
0 0.1 0 0.02 0.1 0 0.04 0.1 0 
0.06 0.1 0 0.08 0.1 0 0.1 0.1 0 
0.12 0.1 0 0.14 0.1 0 0.16 0.1 0 
0.18 0.1 0 0.2 0.1 0 0.22 0.1 0 
0.24 0.1 0 0.26 0.1 0 0.28 0.1 0 
0.3 0.1 0 0.32 0.1 0 0.34 0.1 0 
0.36 0.1 0 0.38 0.1 0 0.4 0.1 0 
0.42 0.1 0 0.44 0.1 0 0.46 0.1 0 
0.48 0.1 0 0.5 0.1 0 0.52 0.1 0 
0.54 0.1 0 0.56 0.1 0 0.58 0.1 0 
0.6 0.1 0 0.62 0.1 0 0.64 0.1 0 
0.66 0.1 0 0.68 0.1 0 0.7 0.1 0 
0.72 0.1 0 0.74 0.1 0 0.76 0.1 0 
0.78 0.1 0 0.8 0.1 0 0.82 0.1 0 
0.84 0.1 0 0.86 0.1 0 0.88 0.1 0 
0.9 0.1 0 0.92 0.1 0 0.94 0.1 0 
0.96 0.1 0 0.98 0.1 0 1 0.1 0 
0 0.12 0 0.02 0.12 0 0.04 0.12 0 
0.06 0.12 0 0.08 0.12 0 0.1 0.12 0 
0.12 0.12 0 0.14 0.12 0 0.16 0.12 0 
0.18 0.12 0 0.2 0.12 0 0.22 0.12 0 
0.24 0.12 0 0.26 0.12 0 0.28 0.12 0 
0.3 0.12 0 0.32 0.12 0 0.34 0.12 0 
0.36 0.12 0 0.38 0.12 0 0.4 0.12 0 
0.42 0.12 0 0.44 0.12 0 0.46 0.12 0 
0.48 0.12 0 0.5 0.12 0 0.52 0.12 0 
0.54 0.12 0 0.56 0.12 0 0.58 0.12 0 
0.6 0.12 0 0.62 0.12 0 0.64 0.12 0 
0.66 0.12 0 0.68 0.12 0 0.7 0.12 0 
0.72 0.12 0 0.74 0.12 0 0.76 0.12 0 
0.78 0.12 0 0.8 0.12 0 0.82 0.12 0 
0.84 0.12 0 0.86 0.12 0 0.88 0.12 0 
0.9 0.12 0 0.92 0.12 0 0.94 0.12 0 
0.96 0.12 0 0.98 0.12 0 1 0.12 0 
0 0.14 0 0.02 0.14 0 0.04 0.14 0 
0.06 0.14 0 0.08 0.14 0 0.1 0.14 0 
0.12 0.14 0 0.14 0.14 0 0.16 0.14 0 
0.18 0.14 0 0.2 0.14 0 0.22 0.14 0 
0.24 0.14 0 0.26 0.14 0 0.28 0.14 0 
0.3 0.14 0 0.32 0.14 0 0.34 0.14 0 
0.36 0.14 0 0.38 0.14 0 0.4 0.14 0 
0.42 0.14 0 0.44 0.14 0 0.46 0.14 0 
0.48 0.14 0 0.5 0.14 0 0.52 0.14 0 
0.54 0.14 0 0.56 0.14 0 0.58 0.14 0 
0.6 0.14 0 0.62 0.14 0 0.64 0.14 0 
0.66 0.14 0 0.68 0.14 0 0.7 0.14 0 
0.72 0.14 0 0.74 0.14 0 0.76 0.14 0 
0.78 0.14 0 0.8 0.14 0 0.82 0.14 0 
0.84 0.14 0 0.86 0.14 0 0.88 0.14 0 
0.9 0.14 0 0.92 0.14 0 0.94 0.14 0 
0.96 0.14 0 0.98 0.14 0 1 0.14 0 
0 0.16 0 0.02 0.16 0 0.04 0.16 0 
0.06 0.16 0 0.08 0.16 0 0.1 0.16 0 
0.12 0.16 0 0.14 0.16 0 0.16 0.16 0 
0.18 0.16 0 0.2 0.16 0 0.22 0.16 0 
0.24 0.16 0 0.26 0.16 0 0.28 0.16 0 
0.3 0.16 0 0.32 0.16 0 0.34 0.16 0 
0.36 0.16 0 0.38 0.16 0 0.4 0.16 0 
0.42 0.16 0 0.44 0.16 0 0.46 0.16 0 
0.48 0.16 0 0.5 0.16 0 0.52 0.16 0 
0.54 0.16 0 0.56 0.16 0 0.58 0.16 0 
0.6 0.16 0 0.62 0.16 0 0.64 0.16 0 
0.66 0.16 0 0.68 0.16 0 0.7 0.16 0 
0.72 0.16 0 0.74 0.16 0 0.76 0.16 0 
0.78 0.16 0 0.8 0.16 0 0.82 0.16 0 
0.84 0.16 0 0.86 0.16 0 0.88 0.16 0 
0.9 0.16 0 0.92 0.16 0 0.94 0.16 0 
0.96 0.16 0 0.98 0.16 0 1 0.16 0 
0 0.18 0 0.02 0.18 0 0.04 0.18 0 
0.06 0.18 0 0.08 0.18 0 0.1 0.18 0 
0.12 0.18 0 0.14 0.18 0 0.16 0.18 0 
0.18 0.18 0 0.2 0.18 0 0.22 0.18 0 
0.24 0.18 0 0.26 0.18 0 0.28 0.18 0 
0.3 0.18 0 0.32 0.18 0 0.34 0.18 0 
0.36 0.18 0 0.38 0.18 0 0.4 0.18 0 
0.42 0.18 0 0.44 0.18 0 0.46 0.18 0 
0.48 0.18 0 0.5 0.18 0 0.52 0.18 0 
0.54 0.18 0 0.56 0.18 0 0.58 0.18 0 
0.6 0.18 0 0.62 0.18 0 0.64 0.18 0 
0.66 0.18 0 0.68 0.18 0 0.7 0.18 0 
0.72 0.18 0 0.74 0.18 0 0.76 0.18 0 
0.78 0.18 0 0.8 0.18 0 0.82 0.18 0 
0.84 0.18 0 0.86 0.18 0 0.88 0.18 0 
0.9 0.18 0 0.92 0.18 0 0.94 0.18 0 
0.96 0.18 0 0.98 0.18 0 1 0.18 0 
0 0.2 0 0.02 0.2 0 0.04 0.2 0 
0.06 0.2 0 0.08 0.2 0 0.1 0.2 0 
0.12 0.2 0 0.14 0.2 0 0.16 0.2 0 
0.18 0.2 0 0.2 0.2 0 0.22 0.2 0 
0.24 0.2 0 0.26 0.2 0 0.28 0.2 0 
0.3 0.2 0 0.32 0.2 0 0.34 0.2 0 
0.36 0.2 0 0.38 0.2 0 0.4 0.2 0 
0.42 0.2 0 0.44 0.2 0 0.46 0.2 0 
0.48 0.2 0 0.5 0.2 0 0.52 0.2 0 
0.54 0.2 0 0.56 0.2 0 0.58 0.2 0 
0.6 0.2 0 0.62 0.2 0 0.64 0.2 0 
0.66 0.2 0 0.68 0.2 0 0.7 0.2 0 
0.72 0.2 0 0.74 0.2 0 0.76 0.2 0 
0.78 0.2 0 0.8 0.2 0 0.82 0.2 0 
0.84 0.2 0 0.86 0.2 0 0.88 0.2 0 
0.9 0.2 0 0.92 0.2 0 0.94 0.2 0 
0.96 0.2 0 0.98 0.2 0 1 0.2 0 
0 0.22 0 0.02 0.22 0 0.04 0.22 0 
0.06 0.22 0 0.08 0.22 0 0.1 0.22 0 
0.12 0.22 0 0.14 0.22 0 0.16 0.22 0 
0.18 0.22 0 0.2 0.22 0 0.22 0.22 0 
0.24 0.22 0 0.26 0.22 0 0.28 0.22 0 
0.3 0.22 0 0.32 0.22 0 0.34 0.22 0 
0.36 0.22 0 0.38 0.22 0 0.4 0.22 0 
0.42 0.22 0 0.44 0.22 0 0.46 0.22 0 
0.48 0.22 0 0.5 0.22 0 0.52 0.22 0 
0.54 0.22 0 0.56 0.22 0 0.58 0.22 0 
0.6 0.22 0 0.62 0.22 0 0.64 0.22 0 
0.66 0.22 0 0.68 0.22 0 0.7 0.22 0 
0.72 0.22 0 0.74 0.22 0 0.76 0.22 0 
0.78 0.22 0 0.8 0.22 0 0.82 0.22 0 
0.84 0.22 0 0.86 0.22 0 0.88 0.22 0 
0.9 0.22 0 0.92 0.22 0 0.94 0.22 0 
0.96 0.22 0 0.98 0.22 0 1 0.22 0 
0 0.24 0 0.02 0.24 0 0.04 0.24 0 
0.06 0.24 0 0.08 0.24 0 0.1 0.24 0 
0.12 0.24 0 0.14 0.24 0 0.16 0.24 0 
0.18 0.24 0 0.2 0.24 0 0.22 0.24 0 
0.24 0.24 0 0.26 0.24 0 0.28 0.24 0 
0.3 0.24 0 0.32 0.24 0 0.34 0.24 0 
0.36 0.24 0 0.38 0.24 0 0.4 0.24 0 
0.42 0.24 0 0.44 0.24 0 0.46 0.24 0 
0.48 0.24 0 0.5 0.24 0 0.52 0.24 0 
0.54 0.24 0 0.56 0.24 0 0.58 0.24 0 
0.6 0.24 0 0.62 0.24 0 0.64 0.24 0 
0.66 0.24 0 0.68 0.24 0 0.7 0.24 0 
0.72 0.24 0 0.74 0.24 0 0.76 0.24 0 
0.78 0.24 0 0.8 0.24 0 0.82 0.24 0 
0.84 0.24 0 0.86 0.24 0 0.88 0.24 0 
0.9 0.24 0 0.92 0.24 0 0.94 0.24 0 
0.96 0.24 0 0.98 0.24 0 1 0.24 0 
0 0.26 0 0.02 0.26 0 0.04 0.26 0 
0.06 0.26 0 0.08 0.26 0 0.1 0.26 0 
0.12 0.26 0 0.14 0.26 0 0.16 0.26 0 
0.18 0.26 0 0.2 0.26 0 0.22 0.26 0 
0.24 0.26 0 0.26 0.26 0 0.28 0.26 0 
0.3 0.26 0 0.32 0.26 0 0.34 0.26 0 
0.36 0.26 0 0.38 0.26 0 0.4 0.26 0 
0.42 0.26 0 0.44 0.26 0 0.46 0.26 0 
0.48 0.26 0 0.5 0.26 0 0.52 0.26 0 
0.54 0.26 0 0.56 0.26 0 0.58 0.26 0 
0.6 0.26 0 0.62 0.26 0 0.64 0.26 0 
0.66 0.26 0 0.68 0.26 0 0.7 0.26 0 
0.72 0.26 0 0.74 0.26 0 0.76 0.26 0 
0.78 0.26 0 0.8 0.26 0 0.82 0.26 0 
0.84 0.26 0 0.86 0.26 0 0.88 0.26 0 
0.9 0.26 0 0.92 0.26 0 0.94 0.26 0 
0.96 0.26 0 0.98 0.26 0 1 0.26 0 
0 0.28 0 0.02 0.28 0 0.04 0.28 0 
0.06 0.28 0 0.08 0.28 0 0.1 0.28 0 
0.12 0.28 0 0.14 0.28 0 0.16 0.28 0 
0.18 0.28 0 0.2 0.28 0 0.22 0.28 0 
0.24 0.28 0 0.26 0.28 0 0.28 0.28 0 
0.3 0.28 0 0.32 0.28 0 0.34 0.28 0 
0.36 0.28 0 0.38 0.28 0 0.4 0.28 0 
0.42 0.28 0 0.44 0.28 0 0.46 0.28 0 
0.48 0.28 0 0.5 0.28 0 0.52 0.28 0 
0.54 0.28 0 0.56 0.28 0 0.58 0.28 0 
0.6 0.28 0 0.62 0.28 0 0.64 0.28 0 
0.66 0.28 0 0.68 0.28 0 0.7 0.28 0 
0.72 0.28 0 0.74 0.28 0 0.76 0.28 0 
0.78 0.28 0 0.8 0.28 0 0.82 0.28 0 
0.84 0.28 0 0.86 0.28 0 0.88 0.28 0 
0.9 0.28 0 0.92 0.28 0 0.94 0.28 0 
0.96 0.28 0 0.98 0.28 0 1 0.28 0 
0 0.3 0 0.02 0.3 0 0.04 0.3 0 
0.06 0.3 0 0.08 0.3 0 0.1 0.3 0 
0.12 0.3 0 0.14 0.3 0 0.16 0.3 0 
0.18 0.3 0 0.2 0.3 0 0.22 0.3 0 
0.24 0.3 0 0.26 0.3 0 0.28 0.3 0 
0.3 0.3 0 0.32 0.3 0 0.34 0.3 0 
0.36 0.3 0 0.38 0.3 0 0.4 0.3 0 
0.42 0.3 0 0.44 0.3 0 0.46 0.3 0 
0.48 0.3 0 0.5 0.3 0 0.52 0.3 0 
0.54 0.3 0 0.56 0.3 0 0.58 0.3 0 
0.6 0.3 0 0.62 0.3 0 0.64 0.3 0 
0.66 0.3 0 0.68 0.3 0 0.7 0.3 0 
0.72 0.3 0 0.74 0.3 0 0.76 0.3 0 
0.78 0.3 0 0.8 0.3 0 0.82 0.3 0 
0.84 0.3 0 0.86 0.3 0 0.88 0.3 0 
0.9 0.3 0 0.92 0.3 0 0.94 0.3 0 
0.96 0.3 0 0.98 0.3 0 1 0.3 0 
0 0.32 0 0.02 0.32 0 0.04 0.32 0 
0.06 0.32 0 0.08 0.32 0 0.1 0.32 0 
0.12 0.32 0 0.14 0.32 0 0.16 0.32 0 
0.18 0.32 0 0.2 0.32 0 0.22 0.32 0 
0.24 0.32 0 0.26 0.32 0 0.28 0.32 0 
0.3 0.32 0 0.32 0.32 0 0.34 0.32 0 
0.36 0.32 0 0.38 0.32 0 0.4 0.32 0 
0.42 0.32 0 0.44 0.32 0 0.46 0.32 0 
0.48 0.32 0 0.5 0.32 0 0.52 0.32 0 
0.54 0.32 0 0.56 0.32 0 0.58 0.32 0 
[...]
CELL_DATA 2500
FIELD FieldData 2
pressure 1 2500 double
-0.0057605616121 -0.0057477340088 -0.0057705400604 -0.0058333003884 -0.0059288694584 -0.0060479178293 -0.0061842018874 -0.0063356982024 -0.0065045312199 
-0.006693759621 -0.0069079517284 -0.00714868887 -0.0074149456027 -0.0077055352859 -0.0080150800356 -0.0083370620467 -0.0086626242021 -0.0089804783456 
-0.0092768556265 -0.0095355889936 -0.0097385910521 -0.009866717599 -0.0099007578784 -0.0098225394222 -0.0096161328848 -0.0092689903741 -0.0087729972719 
-0.0081256143833 -0.0073311941813 -0.0064025406015 -0.0053645564454 -0.0042742543657 -0.0031723463635 -0.0021113083454 -0.0011507004344 -0.00035233192673 
0.00022637705781 0.00054087259959 0.00056902243319 0.00032020985233 -0.00013421840112 -0.00071624765453 -0.0013335025351 -0.0018965545871 -0.0023444221632 
-0.0026627281672 -0.0028615933781 -0.0029594844526 -0.0029761886138 -0.0029380712163 -0.0057668951963 -0.0057581222657 -0.0057855718686 -0.0058470561158 
-0.0059355741833 -0.0060435728499 -0.0061672429153 -0.006305928564 -0.0064630412938 -0.0066396882561 -0.0068420777349 -0.0070705729081 -0.0073244556607 
-0.0076026290677 -0.0079016504968 -0.0082160612519 -0.0085379683573 -0.0088566231208 -0.0091582701935 -0.0094264969642 -0.0096429179195 -0.0097880124029 
-0.0098422066905 -0.0097870550079 -0.0096062679616 -0.0092867056427 -0.0088194067685 -0.0082005510993 -0.0074323012111 -0.0065241189151 -0.0055360845722 
-0.0044813059021 -0.0034090310038 -0.002373548258 -0.0014343283871 -0.00065231555146 -8.3630940027e-05 0.00022880831244 0.00026502367028 3.7714976129e-05 
-0.00040097534871 -0.00093023405807 -0.0014928068675 -0.0020009234913 -0.0023962198801 -0.0026703150621 -0.0028384815278 -0.0029224690733 -0.0029406483186 
-0.0029015478909 -0.0057456225755 -0.0057400640373 -0.005771939085 -0.0058347276589 -0.0059197580492 -0.0060195383533 -0.0061337450049 -0.0062591482098 
-0.006404954812 -0.00657190381 -0.006764537484 -0.0069852209992 -0.0072350524027 -0.0075138290763 -0.0078193372986 -0.0081468180565 -0.0084883185381 
-0.0088324185982 -0.0091644382707 -0.0094669474589 -0.0097204827072 -0.0099045792361 -0.0099989033349 -0.0099842061245 -0.0098433049352 -0.0095621133988 
-0.0091305326426 -0.0085430794094 -0.0077983911314 -0.0069416477221 -0.0059800658448 -0.0049462247061 -0.0038872463255 -0.002857331626 -0.0019157788089 
-0.0011232071355 -0.00053558039911 -0.00019613825149 -0.00012577902519 -0.00031324648733 -0.00070788616282 -0.001219669514 -0.0017443144578 -0.0022209773525 
-0.0025782020503 -0.0028031695424 -0.0029297030046 -0.0029845428652 -0.0029875887272 -0.0029393966468 -0.0056872756995 -0.0056893589154 -0.0057283485896 
-0.0057952281748 -0.0058802497481 -0.0059757462782 -0.00608285776 -0.0062020640593 -0.0063410246979 -0.0065045884697 -0.0066980485858 -0.0069257278397 
-0.0071903465953 -0.0074927064805 -0.0078308996854 -0.0081994533122 -0.0085890323621 -0.0089865257098 -0.0093754158551 -0.0097364739674 -0.010048787145 
-0.01029079392 -0.010441163327 -0.010479792699 -0.010388847549 -0.010153688389 -0.0097639419206 -0.0092148662727 -0.0085107031279 -0.0076895220701 
-0.0067511090844 -0.0057323268546 -0.004678416253 -0.003641980668 -0.0026809101261 -0.0018547786577 -0.0012192933075 -0.00081873930629 -0.0006768844422 
-0.00078773154096 -0.0011089543333 -0.0015628261096 -0.0020503392019 -0.0024916879617 -0.002830406801 -0.0030223210017 -0.0031125094499 -0.0031376305342 
-0.0031235592136 -0.0030737047433 -0.0055873762043 -0.0056021496246 -0.0056518134456 -0.0057252716488 -0.0058131706547 -0.0059106389942 -0.0060178249786 
-0.006139830875 -0.0062845876151 -0.0064601892816 -0.006674110717 -0.006932299087 -0.0072385266323 -0.007593485721 -0.0079939098094 -0.0084322879366 
-0.0088968649322 -0.0093719734044 -0.0098387707026 -0.01027626355 -0.010662257665 -0.010974153182 -0.011189946307 -0.011289213684 -0.011253987905 
-0.011069853412 -0.010727056052 -0.010221098508 -0.0095719100598 -0.0087793695629 -0.0078642847924 -0.0068592776122 -0.0058061729828 -0.0047544490205 
-0.0037592141217 -0.0028779645146 -0.0021656530451 -0.0016678904861 -0.0014126708712 -0.0014018824045 -0.0016051348687 -0.0019596984123 -0.0023802251537 
-0.0027783532728 -0.0030772520572 -0.0032685064568 -0.0033410319141 -0.0033510887064 -0.0033298203325 -0.003287713352 -0.005444719214 -0.0054771427977 
-0.0055394938074 -0.0056227079251 -0.0057201286135 -0.0058264215681 -0.0059453607459 -0.0060846277288 -0.0062543383556 -0.0064648949118 -0.0067253924677 
-0.0070426151939 -0.0074198663234 -0.007856050186 -0.0083454223142 -0.0088775231721 -0.0094375766691 -0.010007317359 -0.010565978152 -0.011091173914 
-0.011559669967 -0.011948354227 -0.012235107142 -0.012399625186 -0.012424584759 -0.012296825291 -0.012008349477 -0.011557450842 -0.010956645425 
-0.010201750551 -0.0093146730979 -0.0083252463543 -0.0072713714589 -0.0061982870881 -0.0051571158313 -0.0042022752176 -0.0033873316415 -0.0027591439144 
-0.0023506167526 -0.0021730802164 -0.0022102573457 -0.002416559442 -0.0027222560065 -0.0030461073967 -0.0033139564005 -0.0034864301966 -0.003571081688 
-0.0035910210838 -0.0035787163202 -0.0035521815954 -0.0052639123191 -0.0053185884507 -0.0053974292856 -0.0054945578624 -0.0056061992554 -0.0057323092788 
-0.0058785766443 -0.0060549690821 -0.0062733935428 -0.0065454628428 -0.0068807378646 -0.0072851573552 -0.0077599433798 -0.0083012615187 -0.0089001028986 
-0.0095427833786 -0.010211844545 -0.010887000595 -0.011546005584 -0.012165429387 -0.012721575196 -0.01319122707 -0.013552435902 -0.013785691334 
-0.013875010563 -0.01380886314 -0.013581258908 -0.013192821831 -0.012644090747 -0.011933160088 -0.011079454728 -0.010109136807 -0.0090554180058 
-0.0079584238253 -0.0068643402529 -0.0058235092562 -0.0048872056215 -0.0041029432766 -0.0035084627712 -0.0031250956778 -0.0029518918188 -0.0029624764313 
-0.0031066804788 -0.0033184444572 -0.003531006248 -0.003698967764 -0.0038007598035 -0.0038393802434 -0.0038512217672 -0.0038455013381 -0.0050600553918 
-0.0051414487157 -0.005236563001 -0.005351649804 -0.0054874226702 -0.0056472630374 -0.0058391944263 -0.0060747082792 -0.0063664666649 -0.0067259904946 
-0.0071615549309 -0.0076767340093 -0.0082697774455 -0.0089333897278 -0.0096552883689 -0.010419093487 -0.011205232697 -0.011991869353 -0.012755675883 
-0.013472671403 -0.014118911051 -0.01467129249 -0.015108688239 -0.015412911888 -0.015569545041 -0.015568882716 -0.015406676762 -0.015084794444 
-0.014592665378 -0.013930984308 -0.013115989156 -0.012169586277 -0.011119847979 -0.010001170097 -0.0088538905327 -0.0077231714803 -0.0066568400282 
-0.0057019791384 -0.0049002988304 -0.0042826799662 -0.0038637447243 -0.0036377545081 -0.0035773830064 -0.0036368678421 -0.0037606163329 -0.0038966035062 
-0.0040083560214 -0.0040961526231 -0.0041437158424 -0.0041614383268 -0.0048590666246 -0.004965641135 -0.0050803404613 -0.0052196543438 -0.005390167647 
-0.0055984745945 -0.005854269818 -0.0061696041676 -0.0065566125562 -0.0070250932579 -0.0075806386883 -0.0082235583485 -0.0089484541618 -0.009744718665 
-0.010597308885 -0.01148760397 -0.012394411183 -0.013294696158 -0.014164349744 -0.014978915382 -0.015714444409 -0.01634858043 -0.016861457097 
-0.017236462885 -0.017461022391 -0.017527055792 -0.017431314836 -0.017176057385 -0.016743202621 -0.016134515838 -0.015363155707 -0.014446802008 
-0.013408156592 -0.01227534106 -0.011082051799 -0.0098671994655 -0.0086738029458 -0.0075469591368 -0.006530758965 -0.0056642303295 -0.0049767018464 
-0.0044833013662 -0.0041815564135 -0.0040501755357 -0.0040511724393 -0.004136622395 -0.0042611344172 -0.0043841244735 -0.004466273239 -0.0045079099404 
-0.0046946847054 -0.0048251498285 -0.0049616210349 -0.0051313591095 -0.0053465868848 -0.0056165089939 -0.0059516756785 -0.006363495765 -0.0068621522702 
-0.0074545213014 -0.0081426112908 -0.0089228621206 -0.0097864473276 -0.01071982144 -0.011705514161 -0.012723169088 -0.013750159213 -0.014762326305 
-0.015734823848 -0.016643001936 -0.017463468595 -0.018175036745 -0.018759451335 -0.019202014513 -0.019491851245 -0.019622020557 -0.019589912523 
-0.019397658016 -0.019023535788 -0.018469638284 -0.017746395519 -0.016867348477 -0.015849751806 -0.01471520397 -0.013490159544 -0.012206257432 
-0.010900299034 -0.0096135992274 -0.0083904796169 -0.0072757938078 -0.0063114941555 -0.0055323868211 -0.0049613585567 -0.0046044814869 -0.0044467435459 
-0.0044500610708 -0.0045570410274 -0.0047017050813 -0.0048309255044 -0.0048995684078 -0.004605242368 -0.0047566193376 -0.0049159168784 -0.0051209636864 
-0.0053887414298 -0.005730244925 -0.0061557482588 -0.006674850705 -0.0072948186231 -0.0080187324296 -0.0088445318588 -0.0097650479523 -0.010768244751 
-0.011837895586 -0.012954587959 -0.014096166135 -0.015238470084 -0.016356306308 -0.017424336556 -0.018418172199 -0.019315473643 -0.020096650534 
-0.020745373328 -0.021248771192 -0.021597367912 -0.021785252225 -0.021810199617 -0.021673936409 -0.021355163252 -0.020856106473 -0.020184670224 
-0.019350547684 -0.018365772818 -0.017245369253 -0.016008209601 -0.014677979841 -0.013284048177 -0.011862049906 -0.010453964954 -0.0091073969211 
-0.0078737256477 -0.0068047730652 -0.0059475617862 -0.0053367452303 -0.00498469653 -0.004870862966 -0.0049363138723 -0.0050945351746 -0.0052621285091 
-0.005356908058 -0.0046246339332 -0.0047924940468 -0.0049747640391 -0.00521830228 -0.0055436700558 -0.0059624806859 -0.0064838180962 -0.0071147352618 
-0.0078587600224 -0.0087148618809 -0.0096772320964 -0.010735210399 -0.011873785956 -0.013074500643 -0.014315691071 -0.015573218776 -0.016821529493 
-0.018034521539 -0.01918674356 -0.020254695283 -0.021217500806 -0.022057389405 -0.022759952168 -0.023313939843 -0.023711289 -0.023947069683 
-0.0240194773 -0.023930117192 -0.023661258804 -0.02321536363 -0.022598195736 -0.021816015021 -0.020875973696 -0.019786874821 -0.01856020916 
-0.017211442924 -0.015761564568 -0.014238765865 -0.01268000255 -0.011132074966 -0.0096516864006 -0.0083036754208 -0.0071563059549 -0.0062722913244 
-0.0056945718545 -0.0054278337897 -0.0054224852219 -0.005577853794 -0.00577414975 -0.0058958896959 -0.0047777588016 -0.0049570795373 -0.0051616957626 
-0.0054450754393 -0.00582974909 -0.0063271475765 -0.0069445588166 -0.0076857444693 -0.0085503748142 -0.0095337059765 -0.010626272985 -0.011814186803 
-0.013079900124 -0.014402245876 -0.015757107896 -0.017118530815 -0.018459550252 -0.019753524105 -0.020975645923 -0.022103602209 -0.023118108949 
-0.024003321483 -0.024746529242 -0.02533815003 -0.025771641082 -0.026043261539 -0.026152083536 -0.026099756921 -0.025874057505 -0.025478187474 
-0.024916036334 -0.024190892789 -0.023305813996 -0.022264216239 -0.021070815303 -0.019733076315 -0.018263186041 -0.016680519036 -0.015014479513 
-0.013307371056 -0.011616587507 -0.010014973267 -0.0085876320639 -0.0074229520822 -0.0065956753458 -0.0061417125566 -0.0060305844365 -0.0061549010924 
-0.006361859772 -0.0065255713079 -0.0050784380798 -0.0052644275316 -0.0054900612899 -0.0058124915558 -0.0062551006437 -0.0068284272041 -0.0075372714684 
-0.0083821559233 -0.0093593494254 -0.010460537241 -0.011672928956 -0.012979875417 -0.014360754152 -0.015791496026 -0.017245724318 -0.018695544437 
-0.020112987157 -0.021471722823 -0.022747737869 -0.023919982583 -0.024970989571 -0.025886501723 -0.026655556072 -0.027270471316 -0.027726438953 
-0.028021386376 -0.028155498966 -0.028130671221 -0.027941009866 -0.027590667793 -0.027082002818 -0.026416164987 -0.025593134576 -0.024612049347 
-0.023471969268 -0.022173175044 -0.020719207891 -0.019119830802 -0.017394891041 -0.015578797662 -0.013724898616 -0.011908405829 -0.010225648806 
-0.0087865427402 -0.0076967982567 -0.0070278903248 -0.0067790520104 -0.0068515159701 -0.0070744789384 -0.0072686772808 -0.0055292374191 -0.0057176581328 
-0.0059620539884 -0.0063210262381 -0.0068176139283 -0.007460677376 -0.0082526479916 -0.0091912531574 -0.01026960702 -0.011476239122 -0.01279554845 
-0.014207643524 -0.015688640991 -0.017211819238 -0.018748376696 -0.020268936366 -0.02174544261 -0.023151907971 -0.02446517935 -0.025665797724 
-0.026737610452 -0.027668028674 -0.02844817997 -0.029072377471 -0.029537977577 -0.029844778713 -0.029994209281 -0.029988622343 -0.029828016835 
-0.029517534043 -0.029058591924 -0.028451022464 -0.027692885102 -0.026780492585 -0.025708728711 -0.02447197599 -0.023065983439 -0.021490941692 
-0.019755943164 -0.017884751785 -0.015922274063 -0.013940308329 -0.012040004372 -0.010347155214 -0.0089955072531 -0.0080940802615 -0.0076801269835 
-0.0076758204601 -0.007896620897 -0.0081251455817 -0.0061224565065 -0.006309432524 -0.0065697980416 -0.0069613846492 -0.0075057073577 -0.0082099507146 
-0.0090744929023 -0.010094608746 -0.011260742967 -0.012558797938 -0.013970047911 -0.015471162112 -0.017035334056 -0.018633053975 -0.020233588798 
-0.021807060298 -0.023325310691 -0.024762762152 -0.026097531271 -0.027311102639 -0.028388783556 -0.029320096214 -0.030098178397 -0.030719743953 
-0.031184435597 -0.031493826845 -0.031650616649 -0.031657629502 -0.031519735743 -0.031242810373 -0.030827844491 -0.03027423669 -0.029579360435 
-0.028738155524 -0.027743003602 -0.026584168189 -0.025251159802 -0.023735501028 -0.022035327698 -0.020162006163 -0.018148392276 -0.016057428754 
-0.013988357494 -0.012076042238 -0.010477271304 -0.0093377820753 -0.0087382145982 -0.0086331898918 -0.0088354989933 -0.0090955060973 -0.0068417078583 
-0.007023931581 -0.0072970049324 -0.0077159720459 -0.008300470142 -0.0090560639436 -0.0099814132939 -0.011069860437 -0.012309652925 -0.013683989721 
-0.015170795114 -0.016743711753 -0.018372982189 -0.020026798394 -0.021673556631 -0.023282896876 -0.02482660889 -0.026280006701 -0.027621748144 
-0.028834462578 -0.029905455895 -0.030826118176 -0.031592038215 -0.032202377017 -0.032658719879 -0.032964272415 -0.033122791566 -0.033137602599 
-0.033017057664 -0.032767196034 -0.03238913737 -0.031882611052 -0.031245288787 -0.030472108958 -0.029554723334 -0.028481306576 -0.027237201958 
-0.025807017087 -0.024178839575 -0.022351101488 -0.020342131677 -0.01820139169 -0.016019702952 -0.01393352926 -0.012115991995 -0.010746012686 
-0.0099499139666 -0.0097244343663 -0.0098924501574 -0.010176914417 -0.0076642995664 -0.0078389343697 -0.0081208655916 -0.0085613615329 -0.0091779018379 
-0.009974578427 -0.010948828741 -0.012092395727 -0.013391472145 -0.014826314039 -0.016371902621 -0.017999018719 -0.019675386807 -0.021368053603 
-0.023044674645 -0.024674414553 -0.026229564079 -0.027685599287 -0.029021915808 -0.030222929534 -0.031277584718 -0.032179639144 -0.032927147161 
-0.033521184985 -0.033965072708 -0.034263237872 -0.034420174615 -0.034439753084 -0.034332260138 -0.0341033429 -0.033754636758 -0.033286670245 
-0.032698177423 -0.031985248269 -0.031140373356 -0.030151663761 -0.029002680695 -0.027673535762 -0.026144179568 -0.024400868874 -0.022446353459 
-0.020313251234 -0.01807821424 -0.015871767519 -0.01387548129 -0.012295600938 -0.011303378239 -0.010944829094 -0.011066530488 -0.011373541067 
-0.0085635987353 -0.0087279196119 -0.0090146003281 -0.0094705803373 -0.010111019 -0.010938918217 -0.011950624408 -0.013136511933 -0.014480516101 
-0.015960222515 -0.017548076927 -0.019212339083 -0.02091942974 -0.022635564565 -0.024327601365 -0.025964846365 -0.027519442293 -0.028967135293 
-0.030288820572 -0.031470275334 -0.032502610435 -0.033381995873 -0.034108294772 -0.034684315652 -0.035114598238 -0.035404257368 -0.035558345916 
-0.035581142768 -0.035483445712 -0.035270121483 -0.034943445533 -0.034505003292 -0.033955072363 -0.0332916491 -0.032509273026 -0.03159777874 
-0.030541286528 -0.029318124337 -0.027902815884 -0.026271474014 -0.024411766813 -0.022337684678 -0.020107233334 -0.017838015234 -0.015711628751 
-0.013953936501 -0.012777312396 -0.012280622937 -0.012345410454 -0.012666194243 -0.0095110371878 -0.0096624039682 -0.0099496639952 -0.010415154264 
-0.011071961906 -0.011921936602 -0.012960443519 -0.014176362719 -0.015551396621 -0.017061062314 -0.01867554495 -0.020361755546 -0.022085383914 
-0.023811689531 -0.025507386955 -0.027141436939 -0.028685784724 -0.030117331384 -0.031418036517 -0.032575527091 -0.033583215274 -0.03443893224 
-0.035144232679 -0.035703138523 -0.036120786547 -0.036402734387 -0.036554205894 -0.036579651094 -0.036489429771 -0.036287283988 -0.035976129797 
-0.035558699223 -0.035036947283 -0.034411160382 -0.033678694607 -0.032832374571 -0.031858809995 -0.030737233705 -0.029439909467 -0.027935813502 
-0.026199528994 -0.024226419151 -0.02205303605 -0.019778190941 -0.017575208724 -0.015680609392 -0.014341343228 -0.013709027534 -0.013709175437 
-0.014035598506 -0.010478031154 -0.010613881013 -0.010897475314 -0.011366991093 -0.012033388552 -0.012897177671 -0.01395264501 -0.015186913935 
-0.016580071268 -0.018105869463 -0.019733214164 -0.021428540627 -0.023156647173 -0.024882470735 -0.026572331687 -0.028194609032 -0.029722023921 
-0.031132263666 -0.032408720701 -0.033541136461 -0.034524399885 -0.035357945668 -0.036044571453 -0.036588849567 -0.036996300202 -0.037272464546 
-0.037422369754 -0.037450495777 -0.037366095455 -0.037171663455 -0.036870710492 -0.036466968341 -0.035964030871 -0.0353645313 -0.034668869735 
-0.033873513442 -0.032968948331 -0.031937563798 -0.0307524712 -0.029379155954 -0.027782389754 -0.025940619952 -0.023868008566 -0.021640304626 
-0.019415054408 -0.017429976585 -0.015957963047 -0.015199912881 -0.015131417413 -0.01545617447 -0.011437843737 -0.011555043212 -0.01183087054 
-0.012299557954 -0.012969545839 -0.01383980112 -0.014903030169 -0.016144970449 -0.017544510842 -0.01907431831 -0.020703132281 -0.022396816658 
-0.02411979337 -0.025836715484 -0.027513116493 -0.029117777084 -0.030623993956 -0.032010419215 -0.033262287625 -0.034370599525 -0.035331666127 
-0.036146185068 -0.0368174903 -0.037350573897 -0.037750917348 -0.038023648454 -0.038173428163 -0.038204333389 -0.038124565627 -0.037935296575 
-0.037640420847 -0.03724456963 -0.03675277906 -0.036169764533 -0.035498809755 -0.034740179469 -0.033888899222 -0.032932053366 -0.031846343912 
-0.030597491727 -0.029144473535 -0.027452006082 -0.025512851331 -0.023377355545 -0.021181182812 -0.019154089883 -0.017584999325 -0.016717743727 
-0.016580766927 -0.016897861706 -0.012367481912 -0.012460028015 -0.01272497976 -0.013188684159 -0.013857120399 -0.014727113841 -0.015789730197 
-0.017029800901 -0.018425402372 -0.019949280124 -0.021570134952 -0.023253548008 -0.024963897441 -0.026665104145 -0.028322787724 -0.029906196836 
-0.031389171561 -0.032751869292 -0.033980549432 -0.035067334423 -0.036009738696 -0.036808969793 -0.037468847616 -0.037994435107 -0.038390754014 
-0.038662416271 -0.038813315376 -0.038847018197 -0.038771031686 -0.038585007701 -0.038293214458 -0.037900977722 -0.03741446421 -0.03684010589 
-0.036183694979 -0.03544897849 -0.034635576227 -0.033736130287 -0.032732844208 -0.031594905786 -0.030279785575 -0.02874269454 -0.026957681376 
-0.024949413222 -0.022827456009 -0.020805493874 -0.019178153608 -0.01822362724 -0.018022579108 -0.01832771282 -0.013242673284 -0.013312046332 
-0.013557999275 -0.014013308868 -0.014675709398 -0.015539250382 -0.016593858773 -0.017823607024 -0.019206737042 -0.02071654703 -0.02232172779 
-0.023988115356 -0.02567969476 -0.027360280424 -0.028995972022 -0.030556307223 -0.032016271426 -0.033356844526 -0.034565028592 -0.035633965863 
-0.036561592651 -0.037349591541 -0.038001984783 -0.038523440197 -0.038918525524 -0.039191023867 -0.039344001195 -0.039380366979 -0.039307384801 
-0.039123249666 -0.038832417233 -0.03844072115 -0.037955200495 -0.037383625881 -0.036733779881 -0.036012350585 -0.035223248612 -0.034364723925 
-0.033425460976 -0.032380581707 -0.03118996475 -0.029803981769 -0.028182006311 -0.026324740364 -0.024313572672 -0.022339639722 -0.020693354938 
-0.019677264061 -0.019420477993 -0.019711220466 -0.01404045511 -0.014097868153 -0.014318776481 -0.014755766261 -0.015408333789 -0.01625977414 