# vtk DataFile Version 4.1
vtk output
ASCII
DATASET STRUCTURED_GRID
DIMENSIONS 51 51 1
POINTS 2601 float
0 0 0 0.02 0 0 0.04 0 0 
0.06 0 0 0.08 0 0 0.1 0 0 
0.12 0 0 0.14 0 0 0.16 0 0 
0.18 0 0 0.2 0 0 0.22 0 0 
0.24 0 0 0.26 0 0 0.28 0 0 
0.3 0 0 0.32 0 0 0.34 0 0 
0.36 0 0 0.38 0 0 0.4 0 0 
0.42 0 0 0.44 0 0 0.46 0 0 
0.48 0 0 0.5 0 0 0.52 0 0 
0.54 0 0 0.56 0 0 0.58 0 0 
0.6 0 0 0.62 0 0 0.64 0 0 
0.66 0 0 0.68 0 0 0.7 0 0 
0.72 0 0 0.74 0 0 0.76 0 0 
0.78 0 0 0.8 0 0 0.82 0 0 
0.84 0 0 0.86 0 0 0.88 0 0 
0.9 0 0 0.92 0 0 0.94 0 0 
0.96 0 0 0.98 0 0 1 0 0 
0 0.02 0 0.02 0.02 0 0.04 0.02 0 
0.06 0.02 0 0.08 0.02 0 0.1 0.02 0 
0.12 0.02 0 0.14 0.02 0 0.16 0.02 0 
0.18 0.02 0 0.2 0.02 0 0.22 0.02 0 
0.24 0.02 0 0.26 0.02 0 0.28 0.02 0 
0.3 0.02 0 0.32 0.02 0 0.34 0.02 0 
0.36 0.02 0 0.38 0.02 0 0.4 0.02 0 
0.42 0.02 0 0.44 0.02 0 0.46 0.02 0 
0.48 0.02 0 0.5 0.02 0 0.52 0.02 0 
0.54 0.02 0 0.56 0.02 0 0.58 0.02 0 
0.6 0.02 0 0.62 0.02 0 0.64 0.02 0 
0.66 0.02 0 0.68 0.02 0 0.7 0.02 0 
0.72 0.02 0 0.74 0.02 0 0.76 0.02 0 
0.78 0.02 0 0.8 0.02 0 0.82 0.02 0 
0.84 0.02 0 0.86 0.02 0 0.88 0.02 0 
0.9 0.02 0 0.92 0.02 0 0.94 0.02 0 
0.96 0.02 0 0.98 0.02 0 1 0.02 0 
0 0.04 0 0.02 0.04 0 0.04 0.04 0 
0.06 0.04 0 0.08 0.04 0 0.1 0.04 0 
0.12 0.04 0 0.14 0.04 0 0.16 0.04 0 
0.18 0.04 0 0.2 0.04 0 0.22 0.04 0 
0.24 0.04 0 0.26 0.04 0 0.28 0.04 0 
0.3 0.04 0 0.32 0.04 0 0.34 0.04 0 
0.36 0.04 0 0.38 0.04 0 0.4 0.04 0 
0.42 0.04 0 0.44 0.04 0 0.46 0.04 0 
0.48 0.04 0 0.5 0.04 0 0.52 0.04 0 
0.54 0.04 0 0.56 0.04 0 0.58 0.04 0 
0.6 0.04 0 0.62 0.04 0 0.64 0.04 0 
0.66 0.04 0 0.68 0.04 0 0.7 0.04 0 
0.72 0.04 0 0.74 0.04 0 0.76 0.04 0 
0.78 0.04 0 0.8 0.04 0 0.82 0.04 0 
0.84 0.04 0 0.86 0.04 0 0.88 0.04 0 
0.9 0.04 0 0.92 0.04 0 0.94 0.04 0 
0.96 0.04 0 0.98 0.04 0 1 0.04 0 
0 0.06 0 0.02 0.06 0 0.04 0.06 0 
0.06 0.06 0 0.08 0.06 0 0.1 0.06 0 
0.12 0.06 0 0.14 0.06 0 0.16 0.06 0 
0.18 0.06 0 0.2 0.06 0 0.22 0.06 0 
0.24 0.06 0 0.26 0.06 0 0.28 0.06 0 
0.3 0.06 0 0.32 0.06 0 0.34 0.06 0 
0.36 0.06 0 0.38 0.06 0 0.4 0.06 0 
0.42 0.06 0 0.44 0.06 0 0.46 0.06 0 
0.48 0.06 0 0.5 0.06 0 0.52 0.06 0 
0.54 0.06 0 0.56 0.06 0 0.58 0.06 0 
0.6 0.06 0 0.62 0.06 0 0.64 0.06 0 
0.66 0.06 0 0.68 0.06 0 0.7 0.06 0 
0.72 0.06 0 0.74 0.06 0 0.76 0.06 0 
0.78 0.06 0 0.8 0.06 0 0.82 0.06 0 
0.84 0.06 0 0.86 0.06 0 0.88 0.06 0 
0.9 0.06 0 0.92 0.06 0 0.94 0.06 0 
0.96 0.06 0 0.98 0.06 0 1 0.06 0 
0 0.08 0 0.02 0.08 0 0.04 0.08 0 
0.06 0.08 0 0.08 0.08 0 0.1 0.08 0 
0.12 0.08 0 0.14 0.08 0 0.16 0.08 0 
0.18 0.08 0 0.2 0.08 0 0.22 0.08 0 
0.24 0.08 0 0.26 0.08 0 0.28 0.08 0 
0.3 0.08 0 0.32 0.08 0 0.34 0.08 0 
0.36 0.08 0 0.38 0.08 0 0.4 0.08 0 
0.42 0.08 0 0.44 0.08 0 0.46 0.08 0 
0.48 0.08 0 0.5 0.08 0 0.52 0.08 0 
0.54 0.08 0 0.56 0.08 0 0.58 0.08 0 
0.6 0.08 0 0.62 0.08 0 0.64 0.08 0 
0.66 0.08 0 0.68 0.08 0 0.7 0.08 0 
0.72 0.08 0 0.74 0.08 0 0.76 0.08 0 
0.78 0.08 0 0.8 0.08 0 0.82 0.08 0 
0.84 0.08 0 0.86 0.08 0 0.88 0.08 0 
0.9 0.08 0 0.92 0.08 0 0.94 0.08 0 
0.96 0.08 0 0.98 0.08 0 1 0.08 0 
0 0.1 0 0.02 0.1 0 0.04 0.1 0 
0.06 0.1 0 0.08 0.1 0 0.1 0.1 0 
0.12 0.1 0 0.14 0.1 0 0.16 0.1 0 
0.18 0.1 0 0.2 0.1 0 0.22 0.1 0 
0.24 0.1 0 0.26 0.1 0 0.28 0.1 0 
0.3 0.1 0 0.32 0.1 0 0.34 0.1 0 
0.36 0.1 0 0.38 0.1 0 0.4 0.1 0 
0.42 0.1 0 0.44 0.1 0 0.46 0.1 0 
0.48 0.1 0 0.5 0.1 0 0.52 0.1 0 
0.54 0.1 0 0.56 0.1 0 0.58 0.1 0 
0.6 0.1 0 0.62 0.1 0 0.64 0.1 0 
0.66 0.1 0 0.68 0.1 0 0.7 0.1 0 
0.72 0.1 0 0.74 0.1 0 0.76 0.1 0 
0.78 0.1 0 0.8 0.1 0 0.82 0.1 0 
0.84 0.1 0 0.86 0.1 0 0.88 0.1 0 
0.9 0.1 0 0.92 0.1 0 0.94 0.1 0 
0.96 0.1 0 0.98 0.1 0 1 0.1 0 
0 0.12 0 0.02 0.12 0 0.04 0.12 0 
0.06 0.12 0 0.08 0.12 0 0.1 0.12 0 
0.12 0.12 0 0.14 0.12 0 0.16 0.12 0 
0.18 0.12 0 0.2 0.12 0 0.22 0.12 0 
0.24 0.12 0 0.26 0.12 0 0.28 0.12 0 
0.3 0.12 0 0.32 0.12 0 0.34 0.12 0 
0.36 0.12 0 0.38 0.12 0 0.4 0.12 0 
0.42 0.12 0 0.44 0.12 0 0.46 0.12 0 
0.48 0.12 0 0.5 0.12 0 0.52 0.12 0 
0.54 0.12 0 0.56 0.12 0 0.58 0.12 0 
0.6 0.12 0 0.62 0.12 0 0.64 0.12 0 
0.66 0.12 0 0.68 0.12 0 0.7 0.12 0 
0.72 0.12 0 0.74 0.12 0 0.76 0.12 0 
0.78 0.12 0 0.8 0.12 0 0.82 0.12 0 
0.84 0.12 0 0.86 0.12 0 0.88 0.12 0 
0.9 0.12 0 0.92 0.12 0 0.94 0.12 0 
0.96 0.12 0 0.98 0.12 0 1 0.12 0 
0 0.14 0 0.02 0.14 0 0.04 0.14 0 
0.06 0.14 0 0.08 0.14 0 0.1 0.14 0 
0.12 0.14 0 0.14 0.14 0 0.16 0.14 0 
0.18 0.14 0 0.2 0.14 0 0.22 0.14 0 
0.24 0.14 0 0.26 0.14 0 0.28 0.14 0 
0.3 0.14 0 0.32 0.14 0 0.34 0.14 0 
0.36 0.14 0 0.38 0.14 0 0.4 0.14 0 
0.42 0.14 0 0.44 0.14 0 0.46 0.14 0 
0.48 0.14 0 0.5 0.14 0 0.52 0.14 0 
0.54 0.14 0 0.56 0.14 0 0.58 0.14 0 
0.6 0.14 0 0.62 0.14 0 0.64 0.14 0 
0.66 0.14 0 0.68 0.14 0 0.7 0.14 0 
0.72 0.14 0 0.74 0.14 0 0.76 0.14 0 
0.78 0.14 0 0.8 0.14 0 0.82 0.14 0 
0.84 0.14 0 0.86 0.14 0 0.88 0.14 0 
0.9 0.14 0 0.92 0.14 0 0.94 0.14 0 
0.96 0.14 0 0.98 0.14 0 1 0.14 0 
0 0.16 0 0.02 0.16 0 0.04 0.16 0 
0.06 0.16 0 0.08 0.16 0 0.1 0.16 0 
0.12 0.16 0 0.14 0.16 0 0.16 0.16 0 
0.18 0.16 0 0.2 0.16 0 0.22 0.16 0 
0.24 0.16 0 0.26 0.16 0 0.28 0.16 0 
0.3 0.16 0 0.32 0.16 0 0.34 0.16 0 
0.36 0.16 0 0.38 0.16 0 0.4 0.16 0 
0.42 0.16 0 0.44 0.16 0 0.46 0.16 0 
0.48 0.16 0 0.5 0.16 0 0.52 0.16 0 
0.54 0.16 0 0.56 0.16 0 0.58 0.16 0 
0.6 0.16 0 0.62 0.16 0 0.64 0.16 0 
0.66 0.16 0 0.68 0.16 0 0.7 0.16 0 
0.72 0.16 0 0.74 0.16 0 0.76 0.16 0 
0.78 0.16 0 0.8 0.16 0 0.82 0.16 0 
0.84 0.16 0 0.86 0.16 0 0.88 0.16 0 
0.9 0.16 0 0.92 0.16 0 0.94 0.16 0 
0.96 0.16 0 0.98 0.16 0 1 0.16 0 
0 0.18 0 0.02 0.18 0 0.04 0.18 0 
0.06 0.18 0 0.08 0.18 0 0.1 0.18 0 
0.12 0.18 0 0.14 0.18 0 0.16 0.18 0 
0.18 0.18 0 0.2 0.18 0 0.22 0.18 0 
0.24 0.18 0 0.26 0.18 0 0.28 0.18 0 
0.3 0.18 0 0.32 0.18 0 0.34 0.18 0 
0.36 0.18 0 0.38 0.18 0 0.4 0.18 0 
0.42 0.18 0 0.44 0.18 0 0.46 0.18 0 
0.48 0.18 0 0.5 0.18 0 0.52 0.18 0 
0.54 0.18 0 0.56 0.18 0 0.58 0.18 0 
0.6 0.18 0 0.62 0.18 0 0.64 0.18 0 
0.66 0.18 0 0.68 0.18 0 0.7 0.18 0 
0.72 0.18 0 0.74 0.18 0 0.76 0.18 0 
0.78 0.18 0 0.8 0.18 0 0.82 0.18 0 
0.84 0.18 0 0.86 0.18 0 0.88 0.18 0 
0.9 0.18 0 0.92 0.18 0 0.94 0.18 0 
0.96 0.18 0 0.98 0.18 0 1 0.18 0 
0 0.2 0 0.02 0.2 0 0.04 0.2 0 
0.06 0.2 0 0.08 0.2 0 0.1 0.2 0 
0.12 0.2 0 0.14 0.2 0 0.16 0.2 0 
0.18 0.2 0 0.2 0.2 0 0.22 0.2 0 
0.24 0.2 0 0.26 0.2 0 0.28 0.2 0 
0.3 0.2 0 0.32 0.2 0 0.34 0.2 0 
0.36 0.2 0 0.38 0.2 0 0.4 0.2 0 
0.42 0.2 0 0.44 0.2 0 0.46 0.2 0 
0.48 0.2 0 0.5 0.2 0 0.52 0.2 0 
0.54 0.2 0 0.56 0.2 0 0.58 0.2 0 
0.6 0.2 0 0.62 0.2 0 0.64 0.2 0 
0.66 0.2 0 0.68 0.2 0 0.7 0.2 0 
0.72 0.2 0 0.74 0.2 0 0.76 0.2 0 
0.78 0.2 0 0.8 0.2 0 0.82 0.2 0 
0.84 0.2 0 0.86 0.2 0 0.88 0.2 0 
0.9 0.2 0 0.92 0.2 0 0.94 0.2 0 
0.96 0.2 0 0.98 0.2 0 1 0.2 0 
0 0.22 0 0.02 0.22 0 0.04 0.22 0 
0.06 0.22 0 0.08 0.22 0 0.1 0.22 0 
0.12 0.22 0 0.14 0.22 0 0.16 0.22 0 
0.18 0.22 0 0.2 0.22 0 0.22 0.22 0 
0.24 0.22 0 0.26 0.22 0 0.28 0.22 0 
0.3 0.22 0 0.32 0.22 0 0.34 0.22 0 
0.36 0.22 0 0.38 0.22 0 0.4 0.22 0 
0.42 0.22 0 0.44 0.22 0 0.46 0.22 0 
0.48 0.22 0 0.5 0.22 0 0.52 0.22 0 
0.54 0.22 0 0.56 0.22 0 0.58 0.22 0 
0.6 0.22 0 0.62 0.22 0 0.64 0.22 0 
0.66 0.22 0 0.68 0.22 0 0.7 0.22 0 
0.72 0.22 0 0.74 0.22 0 0.76 0.22 0 
0.78 0.22 0 0.8 0.22 0 0.82 0.22 0 
0.84 0.22 0 0.86 0.22 0 0.88 0.22 0 
0.9 0.22 0 0.92 0.22 0 0.94 0.22 0 
0.96 0.22 0 0.98 0.22 0 1 0.22 0 
0 0.24 0 0.02 0.24 0 0.04 0.24 0 
0.06 0.24 0 0.08 0.24 0 0.1 0.24 0 
0.12 0.24 0 0.14 0.24 0 0.16 0.24 0 
0.18 0.24 0 0.2 0.24 0 0.22 0.24 0 
0.24 0.24 0 0.26 0.24 0 0.28 0.24 0 
0.3 0.24 0 0.32 0.24 0 0.34 0.24 0 
0.36 0.24 0 0.38 0.24 0 0.4 0.24 0 
0.42 0.24 0 0.44 0.24 0 0.46 0.24 0 
0.48 0.24 0 0.5 0.24 0 0.52 0.24 0 
0.54 0.24 0 0.56 0.24 0 0.58 0.24 0 
0.6 0.24 0 0.62 0.24 0 0.64 0.24 0 
0.66 0.24 0 0.68 0.24 0 0.7 0.24 0 
0.72 0.24 0 0.74 0.24 0 0.76 0.24 0 
0.78 0.24 0 0.8 0.24 0 0.82 0.24 0 
0.84 0.24 0 0.86 0.24 0 0.88 0.24 0 
0.9 0.24 0 0.92 0.24 0 0.94 0.24 0 
0.96 0.24 0 0.98 0.24 0 1 0.24 0 
0 0.26 0 0.02 0.26 0 0.04 0.26 0 
0.06 0.26 0 0.08 0.26 0 0.1 0.26 0 
0.12 0.26 0 0.14 0.26 0 0.16 0.26 0 
0.18 0.26 0 0.2 0.26 0 0.22 0.26 0 
0.24 0.26 0 0.26 0.26 0 0.28 0.26 0 
0.3 0.26 0 0.32 0.26 0 0.34 0.26 0 
0.36 0.26 0 0.38 0.26 0 0.4 0.26 0 
0.42 0.26 0 0.44 0.26 0 0.46 0.26 0 
0.48 0.26 0 0.5 0.26 0 0.52 0.26 0 
0.54 0.26 0 0.56 0.26 0 0.58 0.26 0 
0.6 0.26 0 0.62 0.26 0 0.64 0.26 0 
0.66 0.26 0 0.68 0.26 0 0.7 0.26 0 
0.72 0.26 0 0.74 0.26 0 0.76 0.26 0 
0.78 0.26 0 0.8 0.26 0 0.82 0.26 0 
0.84 0.26 0 0.86 0.26 0 0.88 0.26 0 
0.9 0.26 0 0.92 0.26 0 0.94 0.26 0 
0.96 0.26 0 0.98 0.26 0 1 0.26 0 
0 0.28 0 0.02 0.28 0 0.04 0.28 0 
0.06 0.28 0 0.08 0.28 0 0.1 0.28 0 
0.12 0.28 0 0.14 0.28 0 0.16 0.28 0 
0.18 0.28 0 0.2 0.28 0 0.22 0.28 0 
0.24 0.28 0 0.26 0.28 0 0.28 0.28 0 
0.3 0.28 0 0.32 0.28 0 0.34 0.28 0 
0.36 0.28 0 0.38 0.28 0 0.4 0.28 0 
0.42 0.28 0 0.44 0.28 0 0.46 0.28 0 
0.48 0.28 0 0.5 0.28 0 0.52 0.28 0 
0.54 0.28 0 0.56 0.28 0 0.58 0.28 0 
0.6 0.28 0 0.62 0.28 0 0.64 0.28 0 
0.66 0.28 0 0.68 0.28 0 0.7 0.28 0 
0.72 0.28 0 0.74 0.28 0 0.76 0.28 0 
0.78 0.28 0 0.8 0.28 0 0.82 0.28 0 
0.84 0.28 0 0.86 0.28 0 0.88 0.28 0 
0.9 0.28 0 0.92 0.28 0 0.94 0.28 0 
0.96 0.28 0 0.98 0.28 0 1 0.28 0 
0 0.3 0 0.02 0.3 0 0.04 0.3 0 
0.06 0.3 0 0.08 0.3 0 0.1 0.3 0 
0.12 0.3 0 0.14 0.3 0 0.16 0.3 0 
0.18 0.3 0 0.2 0.3 0 0.22 0.3 0 
0.24 0.3 0 0.26 0.3 0 0.28 0.3 0 
0.3 0.3 0 0.32 0.3 0 0.34 0.3 0 
0.36 0.3 0 0.38 0.3 0 0.4 0.3 0 
0.42 0.3 0 0.44 0.3 0 0.46 0.3 0 
0.48 0.3 0 0.5 0.3 0 0.52 0.3 0 
0.54 0.3 0 0.56 0.3 0 0.58 0.3 0 
0.6 0.3 0 0.62 0.3 0 0.64 0.3 0 
0.66 0.3 0 0.68 0.3 0 0.7 0.3 0 
0.72 0.3 0 0.74 0.3 0 0.76 0.3 0 
0.78 0.3 0 0.8 0.3 0 0.82 0.3 0 
0.84 0.3 0 0.86 0.3 0 0.88 0.3 0 
0.9 0.3 0 0.92 0.3 0 0.94 0.3 0 
0.96 0.3 0 0.98 0.3 0 1 0.3 0 
0 0.32 0 0.02 0.32 0 0.04 0.32 0 
0.06 0.32 0 0.08 0.32 0 0.1 0.32 0 
0.12 0.32 0 0.14 0.32 0 0.16 0.32 0 
0.18 0.32 0 0.2 0.32 0 0.22 0.32 0 
0.24 0.32 0 0.26 0.32 0 0.28 0.32 0 
0.3 0.32 0 0.32 0.32 0 0.34 0.32 0 
0.36 0.32 0 0.38 0.32 0 0.4 0.32 0 
0.42 0.32 0 0.44 0.32 0 0.46 0.32 0 
0.48 0.32 0 0.5 0.32 0 0.52 0.32 0 
0.54 0.32 0 0.56 0.32 0 0.58 0.32 0 
[...]
CELL_DATA 2500
FIELD FieldData 2
pressure 1 2500 double
-0.0058385002162 -0.0058416749577 -0.0058432332711 -0.0058411909165 -0.0058347756555 -0.0058237914387 -0.0058082556925 -0.0057882282757 -0.0057637478069 
-0.0057348206308 -0.0057014272586 -0.0056635325228 -0.0056210940997 -0.0055740690659 -0.0055224192011 -0.0054661148445 -0.0054051397502 -0.0053394956244 
-0.0052692066248 -0.0051943241512 -0.0051149314047 -0.0050311482603 -0.00494313636 -0.0048511037261 -0.0047553090401 -0.0046560657186 -0.0045537453987 
-0.0044487803713 -0.0043416651573 -0.0042329569913 -0.0041233510754 -0.0040135508628 -0.0039043028919 -0.0037964146655 -0.0036907405597 -0.0035881687712 
-0.0034896071076 -0.0033959673896 -0.0033081488001 -0.0032270206092 -0.0031534049349 -0.003088060138 -0.0030316639465 -0.0029847929593 -0.0029478903555 
-0.0029212035067 -0.0029046576348 -0.0028976049578 -0.0028983403125 -0.0029032030741 -0.0058353015589 -0.0058385028847 -0.0058390591768 -0.005836080882 
-0.0058290582056 -0.005817765371 -0.0058021241983 -0.005782111461 -0.0057577133379 -0.0057289078203 -0.0056956622401 -0.005657935995 -0.0056156850518 
-0.0055688664609 -0.0055174419703 -0.0054613831537 -0.0054006751131 -0.0053353210398 -0.0052653466795 -0.0051908043977 -0.0051117782453 -0.0050283888181 
-0.0049407975804 -0.0048492116307 -0.0047538885141 -0.0046551402117 -0.004553336361 -0.0044489068591 -0.0043423430797 -0.0042342009679 -0.0041251975319 
-0.0040159953251 -0.0039073479761 -0.00380006196 -0.0036949884862 -0.0035930118032 -0.0034950355039 -0.0034019670245 -0.0033147005335 -0.0032340988608 
-0.0031609748855 -0.0030960719339 -0.0030400411646 -0.0029934123584 -0.0029565500087 -0.0029295831183 -0.0029122956276 -0.0029039733966 -0.0029032452543 
-0.0029080973997 -0.0058337987812 -0.0058380699477 -0.0058386198341 -0.0058353089528 -0.0058279693456 -0.0058164828021 -0.0058007747107 -0.0057807937239 
-0.0057564959956 -0.0057278372132 -0.0056947700952 -0.0056572450014 -0.0056152121233 -0.0055686239619 -0.0055174397003 -0.0054616280927 -0.0054011720886 
-0.0053360724873 -0.0052663517561 -0.0051920592435 -0.0051132754169 -0.0050301161782 -0.0049427380756 -0.0048513434453 -0.0047561847819 -0.0046575690533 
-0.0045558617769 -0.0044514897036 -0.0043449411825 -0.0042368207838 -0.0041277558051 -0.0040184440705 -0.0039096451163 -0.0038021728904 -0.0036968868984 
-0.0035946810081 -0.0034964694746 -0.0034031706504 -0.0033156891358 -0.0032348965988 -0.0031616115341 -0.0030965773454 -0.0030404367898 -0.0029936996386 
-0.0029566981149 -0.0029295254693 -0.0029119596156 -0.0029033956804 -0.002902861392 -0.0029092850944 -0.0058362840607 -0.0058415994542 -0.0058424835353 
-0.0058391785363 -0.005831757888 -0.0058202180749 -0.0058045225937 -0.0057846214186 -0.0057604590188 -0.0057319773256 -0.0056991169921 -0.0056618186667 
-0.0056200243288 -0.005573680413 -0.0055227396122 -0.0054671655154 -0.0054069350608 -0.0053420422337 -0.0052725031901 -0.0051983595823 -0.0051196831273 
-0.0050365810547 -0.004949201128 -0.0048577363254 -0.0047624301124 -0.0046635818447 -0.0045615511982 -0.0044567624093 -0.0043497087579 -0.0042409931363 
-0.0041312225473 -0.0040211102679 -0.0039114303236 -0.0038030133703 -0.0036967388008 -0.0035935229164 -0.0034943043258 -0.0034000269133 -0.0033116205123 
-0.0032299800967 -0.0031559439829 -0.003090269695 -0.0030336067372 -0.0029864641519 -0.0029491695808 -0.0029218190898 -0.0029042250069 -0.002895887958 
-0.0028960525928 -0.0029039534362 -0.0058438902449 -0.00584996048 -0.0058512195689 -0.0058480707809 -0.0058407203833 -0.0058292446043 -0.0058136439858 
-0.0057938795113 -0.0057698935735 -0.0057416205121 -0.0057089919442 -0.0056719392258 -0.0056303961075 -0.0055842999698 -0.0055335960708 -0.0054782389004 
-0.0054181958397 -0.0053534517618 -0.005284011345 -0.0052099042138 -0.0051311898551 -0.0050479626595 -0.0049603566902 -0.0048685515144 -0.0047727785302 
-0.0046733260869 -0.004570545242 -0.0044648558441 -0.0043567528643 -0.004246827041 -0.004135700119 -0.0040240984442 -0.0039128155434 -0.0038027075461 
-0.0036946842173 -0.003589696906 -0.0034887226984 -0.0033927455024 -0.003302735144 -0.0032196247468 -0.0031442862554 -0.0030775038606 -0.0030199456688 
-0.0029721315527 -0.0029343957161 -0.0029068440266 -0.0028893125028 -0.0028813463699 -0.0028822406636 -0.0028912192528 -0.0058571122351 -0.0058636685436 
-0.0058652462988 -0.0058623028073 -0.0058551056834 -0.0058437753341 -0.0058283369523 -0.0058087613974 -0.0057849915985 -0.0057569574621 -0.0057245832632 
-0.0056877921271 -0.0056465079135 -0.0056006592262 -0.005550180097 -0.0054950135435 -0.0054351155373 -0.0053704562379 -0.0053010258639 -0.0052268383037 
-0.0051479365871 -0.0050643972141 -0.0049763364859 -0.004883917384 -0.0047873546648 -0.0046869220269 -0.0045829588556 -0.0044758769163 -0.0043661674784 
-0.0042544186031 -0.0041412805144 -0.0040274952831 -0.0039138821082 -0.0038013311885 -0.003690794412 -0.0035832711569 -0.003479791016 -0.0033813936618 
-0.003289105318 -0.0032039126322 -0.0031267349586 -0.0030583950734 -0.0029995890678 -0.0029508536797 -0.0029125300537 -0.0028847237266 -0.0028672647575 
-0.0028596811191 -0.0028612171125 -0.0028709718318 -0.0058761256374 -0.0058829894702 -0.005884821505 -0.0058820905288 -0.0058750882261 -0.0058639552774 
-0.005848729205 -0.0058293861669 -0.0058058690586 -0.0057781035675 -0.0057460073936 -0.0057094945129 -0.0056684797196 -0.005622879481 -0.0055726152954 
-0.0055176171182 -0.0054578237434 -0.0053931891713 -0.0053236845728 -0.0052493044716 -0.0051700700028 -0.0050860359766 -0.0049972976442 -0.0049039953624 
-0.0048063234375 -0.0047045368411 -0.0045989592 -0.0044899913388 -0.0043781185581 -0.0042639349925 -0.0041481234086 -0.0040314477336 -0.0039147603118 
-0.0037989953879 -0.0036851577989 -0.0035743088808 -0.0034675478027 -0.0033659878761 -0.0032707289801 -0.0031828278891 -0.0031032664745 -0.0030329187557 
-0.0029725173653 -0.002922618403 -0.0028835639585 -0.002855441529 -0.0028380424372 -0.0028308291043 -0.0028329417662 -0.0028433287304 -0.0059009653936 
-0.0059080404276 -0.0059100830282 -0.0059075618064 -0.0059007765126 -0.0058898750427 -0.0058748994035 -0.0058558268959 -0.0058325980143 -0.0058051336387 
-0.0057733436547 -0.005737133463 -0.0056964058837 -0.0056510645841 -0.0056010170643 -0.0055461746613 -0.0054864588298 -0.0054218017912 -0.0053521532353 
-0.0052774821373 -0.005197784839 -0.0051130905182 -0.0050234658523 -0.0049290252912 -0.0048299367796 -0.0047264319333 -0.0046188163081 -0.0045074771223 
-0.0043928908736 -0.0042756574935 -0.0041564998179 -0.0040362090418 -0.0039156777195 -0.0037958930865 -0.0036779270506 -0.0035629199865 -0.0034520587105 
-0.003346549256 -0.0032475853855 -0.0031563140181 -0.0030737975671 -0.0030009753973 -0.0029386250575 -0.0028873226725 -0.0028474020774 -0.0028189121261 
-0.0028015734554 -0.0027947445766 -0.0027974306802 -0.0028084282272 -0.0059316159896 -0.0059388614049 -0.0059410946335 -0.0059387839199 -0.005932231956 
-0.005921589103 -0.0059068977496 -0.0058881329879 -0.0058652313623 -0.0058381068815 -0.0058066615987 -0.0057707896448 -0.0057303814062 -0.0056853262715 
-0.0056355128121 -0.0055808341308 -0.0055211883094 -0.0054564845154 -0.0053866441722 -0.0053116091194 -0.0052313454727 -0.0051458487262 -0.0050551546493 
-0.004959343088 -0.004858551483 -0.0047529852968 -0.004642925821 -0.0045287422711 -0.0044109023025 -0.0042900020939 -0.0041668131885 -0.0040421579618 
-0.0039169765249 -0.0037923214857 -0.003669346391 -0.0035492879463 -0.0034334412256 -0.003323128362 -0.0032196618212 -0.0031243028396 -0.0030382161691 
-0.00296242377 -0.0028977576954 -0.0028448138209 -0.0028039062079 -0.0027750217381 -0.0027577777669 -0.0027513939177 -0.002754714128 -0.0027663788985 
-0.0059680506393 -0.0059754579237 -0.0059778798292 -0.0059757875206 -0.0059694873617 -0.0059591310813 -0.0059447595851 -0.0059263446231 -0.0059038165027 
-0.0058770820653 -0.0058460329201 -0.0058105514961 -0.0057705141834 -0.0057257920618 -0.0056762548065 -0.005621772011 -0.0055622174255 -0.0054974708414 
-0.0054274244502 -0.0053519861083 -0.0052710844183 -0.0051846796005 -0.0050927644607 -0.0049953828129 -0.0048926362489 -0.0047846938842 -0.0046718091974 
-0.004554330471 -0.0044327105744 -0.0043075250598 -0.0041796055017 -0.0040498088881 -0.0039191305316 -0.0037886992194 -0.003659765711 -0.0035336829747 
-0.0034118786367 -0.0032958194 -0.0031869669334 -0.0030867275665 -0.0029963960695 -0.0029170975509 -0.0028497300992 -0.0027949093079 -0.0027529157154 
-0.0027236475454 -0.0027065825264 -0.0027007617791 -0.0027048353118 -0.0027172720299 -0.0060102450932 -0.006017821833 -0.0060204419238 -0.0060185838937 
-0.0060125597345 -0.0060025231772 -0.0059885138968 -0.0059704989348 -0.0059484023384 -0.0059221215663 -0.0058915374116 -0.0058565191375 -0.0058169259531 
-0.0057726098771 -0.0057234180978 -0.0056691951821 -0.0056097859795 -0.005545039074 -0.0054748106928 -0.0053989685803 -0.0053174026154 -0.0052300226174 
-0.0051367820549 -0.0050376772641 -0.0049327635988 -0.0048221723611 -0.004706119889 -0.0045849231212 -0.004459015412 -0.0043289327374 -0.0041955730553 
-0.0040598302072 -0.0039227613622 -0.0037855825676 -0.0036496575231 -0.0035164781564 -0.0033876347823 -0.0032647735129 -0.0031495434568 -0.003043533807 
-0.0029482033333 -0.0028648083364 -0.0027943294712 -0.0027374026989 -0.0026942584125 -0.0026646724052 -0.0026479364207 -0.0026428634376 -0.0026478663398 
-0.0026612131344 -0.0060581790191 -0.0060659398453 -0.0060687751338 -0.0060671743004 -0.0060614574 -0.0060517817578 -0.0060381860295 -0.0060206330737 
-0.0059990394646 -0.0059732929872 -0.005943262731 -0.0059088021317 -0.0058697519843 -0.0058259433958 -0.0057771990702 -0.0057233358918 -0.0056641664211 
-0.0055995031883 -0.0055291609525 -0.005452966378 -0.0053707539314 -0.0052823920785 -0.005187775087 -0.0050868478639 -0.0049796158521 -0.0048661569024 
-0.0047466400646 -0.0046213424654 -0.0044906713308 -0.0043551020577 -0.0042155873039 -0.0040730663119 -0.0039286630801 -0.0037836899163 -0.0036396414912 
-0.0034981759911 -0.0033610804705 -0.0032302216713 -0.0031074826347 -0.0029946844322 -0.0028934977281 -0.0028053475379 -0.0027313190525 -0.0026720702469 
-0.0026277588529 -0.0025979941903 -0.0025818231818 -0.0025777654829 -0.0025839367402 -0.0025983604024 -0.0061118336968 -0.0061197962276 -0.0061228685785 
-0.006121554082 -0.0061161833044 -0.0061069187209 -0.0060937990423 -0.0060767830801 -0.0060557797338 -0.0060306672721 -0.0060013006825 -0.0059675164487 
-0.0059291363481 -0.0058859689793 -0.005837810601 -0.0057844466604 -0.0057256546638 -0.0056612061329 -0.0055908732485 -0.0055144261205 -0.0054316554903 
-0.0053423624684 -0.0052463881758 -0.0051436140923 -0.0050339810629 -0.0049175041801 -0.0047942909544 -0.0046645676744 -0.0045286953604 -0.0043871121663 
-0.004240722296 -0.004090567558 -0.0039378351212 -0.0037839415756 -0.0036305300842 -0.0034794510053 -0.0033327268166 -0.0031924970854 -0.0030609400803 
-0.0029401739794 -0.0028321417796 -0.0027384888226 -0.0026604366553 -0.0025986683276 -0.0025532409481 -0.0025235391662 -0.0025082842563 -0.0025056146687 
-0.0025132692718 -0.002528967464 -0.0061711890342 -0.0061793721974 -0.0061827070552 -0.006181713695 -0.0061767354873 -0.0061679416984 -0.0061553723752 
-0.0061389823667 -0.006118674093 -0.0060943142961 -0.0060657430716 -0.0060327803656 -0.0059952282593 -0.0059528704767 -0.0059054746054 -0.0058527926737 
-0.0057945637315 -0.0057305160789 -0.0056603684102 -0.0055838437566 -0.0055006637823 -0.0054105750141 -0.005313344745 -0.0052087842858 -0.005096756904 
-0.0049772000464 -0.0048501505611 -0.0047157554555 -0.0045743052118 -0.0044262517932 -0.0042722834145 -0.0041136326688 -0.003951537936 -0.0037875188498 
-0.0036233788906 -0.003461192671 -0.0033032683324 -0.0031520801909 -0.0030101753038 -0.0028800518928 -0.0027640122707 -0.002663993537 -0.002581397677 
-0.0025169401964 -0.0024705406322 -0.0024412804667 -0.0024274477004 -0.0024266805474 -0.002436232375 -0.0024534390322 -0.0062362208891 -0.0062446442801 
-0.0062482702111 -0.0062476380297 -0.0062431061752 -0.0062348526954 -0.0062229197135 -0.0062072598668 -0.0061877679178 -0.0061642984394 -0.0061366782447 
-0.0061047106165 -0.0060681754296 -0.0060268314092 -0.0059804154574 -0.0059286450188 -0.0058712171217 -0.0058078122181 -0.0057380992825 -0.005661736655 
-0.005578388807 -0.0054877257146 -0.0053894410126 -0.0052832579066 -0.0051689529847 -0.0050463746682 -0.0049154558435 -0.0047762556697 -0.0046289803551 
-0.0044740239701 -0.0043118517544 -0.0041438695225 -0.0039713495242 -0.0037959161996 -0.0036195527958 -0.0034445889735 -0.0032736647485 -0.0031096618665 
-0.0029555961663 -0.0028144609928 -0.0026890278336 -0.0025816231552 -0.0024938969329 -0.0024266149804 -0.0023795149218 -0.0023512676107 -0.0023395763877 
-0.0023414152315 -0.0023534069262 -0.002372400113 -0.0063068985643 -0.0063155826023 -0.0063195309721 -0.0063193048905 -0.0063152803196 -0.0063076457518 
-0.0062964473116 -0.0062816353863 -0.0062630965298 -0.0062406758602 -0.0062141869082 -0.0061834145634 -0.0061481176501 -0.0061080283291 -0.0060628532367 
-0.0060122717947 -0.0059559389737 -0.0058934865999 -0.0058245258939 -0.0057486567372 -0.0056654717374 -0.0055745645844 -0.0054755384457 -0.0053680257212 
-0.0052516978375 -0.0051262844145 -0.0049916102711 -0.0048476096601 -0.0046943872102 -0.0045322430132 -0.0043613484541 -0.0041832437339 -0.0039992356243 
-0.0038110472772 -0.0036208389278 -0.0034312202894 -0.0032452246063 -0.0030662352042 -0.0028978539766 -0.0027437058825 -0.0026071865687 -0.0024911575303 
-0.0023976217199 -0.0023274275252 -0.0022800703589 -0.0022536663388 -0.0022451248821 -0.0022505298331 -0.0022656773841 -0.0022867906242 -0.0063831829139 
-0.0063921489577 -0.0063964538353 -0.0063966832906 -0.0063932333281 -0.0063863051071 -0.0063759497505 -0.006362115379 -0.0063446834464 -0.0063234900347 
-0.0062983346861 -0.0062689855931 -0.0062351799446 -0.0061966244523 -0.0061529939347 -0.0061039310106 -0.0060490479347 -0.0059879252045 -0.0059201193377 
-0.0058451658527 -0.0057625829836 -0.0056718784195 -0.0055725639119 -0.0054641586915 -0.0053462130566 -0.0052183322492 -0.0050801875602 -0.0049315846436 
-0.0047724665803 -0.0046029889256 -0.0044230954464 -0.0042341811279 -0.004037664093 -0.0038353415623 -0.0036295497885 -0.0034232017366 -0.0032197766728 
-0.0030232520874 -0.0028379588752 -0.0026683449953 -0.0025186429821 -0.0023924542619 -0.0022922884513 -0.0022191366115 -0.0021721932892 -0.0021488147006 
-0.0021448275104 -0.0021551111451 -0.0021743633134 -0.0021979974969 -0.0064650246344 -0.0064742952075 -0.0064789931466 -0.0064797315243 -0.0064769292221 
-0.0064708018311 -0.0064614066015 -0.0064486921585 -0.0064325362373 -0.0064127657956 -0.0063891684786 -0.006361496027 -0.0063294658136 -0.0062927596384 
-0.006251021495 -0.0062038597175 -0.0061508420097 -0.0060915022672 -0.0060253409405 -0.0059518279089 -0.0058704028516 -0.0057804861943 -0.0056814800559 
-0.0055727884286 -0.0054538289562 -0.0053240437464 -0.005182959107 -0.0050301754522 -0.0048654351819 -0.0046886665024 -0.0044999738143 -0.0042996370805 
-0.0040896864215 -0.0038718934704 -0.0036487247478 -0.0034233894771 -0.0031998595072 -0.0029828136398 -0.0027774844945 -0.0025893792269 -0.0024238526217 
-0.002285538365 -0.0021776932679 -0.0021015751066 -0.0020559945677 -0.0020372981848 -0.002039815553 -0.0020567703742 -0.0020813904169 -0.0021080329105 
-0.0065523628194 -0.0065619619131 -0.0065670917663 -0.006568395922 -0.0065663184789 -0.0065610919232 -0.0065527820747 -0.0065413404039 -0.0065266414255 
-0.0065085052746 -0.0064867087109 -0.0064609897514 -0.0064310477282 -0.0063965409999 -0.0063570875508 -0.0063122603885 -0.0062615893796 -0.0062045634388 
-0.0061406298408 -0.0060691897915 -0.005989605448 -0.0059012013436 -0.0058032754574 -0.0056951015438 -0.0055759420257 -0.0054450864905 -0.0053018464592 
-0.0051456077572 -0.004975886523 -0.0047923609962 -0.004595013559 -0.0043831144306 -0.004159088809 -0.0039246463326 -0.0036823313231 -0.0034356294001 
-0.0031890277932 -0.0029480005722 -0.0027188780677 -0.0025085247258 -0.0023237979239 -0.0021707795402 -0.0020538490857 -0.0019747281883 -0.0019318207038 
-0.001920099021 -0.0019318176607 -0.0019579003773 -0.001989576771 -0.0020198163106 -0.0066451241159 -0.0066550777143 -0.0066606808192 -0.0066626097902 
-0.0066613372707 -0.0066571154933 -0.0066500217906 -0.0066400121557 -0.0066269600196 -0.0066106807667 -0.0065909434105 -0.0065674747911 -0.0065399587227 
-0.0065080352452 -0.006471298099 -0.0064292908601 -0.0063815123724 -0.0063274115304 -0.0062663798107 -0.0061977554345 -0.0061208251657 -0.0060348241623 
-0.0059389341203 -0.0058322940402 -0.0057140186473 -0.0055831934103 -0.0054389111464 -0.0052803146574 -0.0051066058687 -0.0049171825139 -0.0047116618934 
-0.0044889218739 -0.0042505700307 -0.0039986020775 -0.0037355629226 -0.0034651224333 -0.0031922546984 -0.0029233161473 -0.0026659403572 -0.0024286946206 
-0.0022204257547 -0.0020492532773 -0.0019212381669 -0.0018389629493 -0.0018004262372 -0.0017987997972 -0.0018234253901 -0.0018619841797 -0.0019029687762 
-0.0019375268454 -0.0067432228696 -0.0067535599877 -0.0067596792933 -0.0067622929895 -0.0067619061279 -0.0067587941534 -0.0067530492171 -0.0067446337887 
-0.0067334232969 -0.0067192313531 -0.00670182262 -0.0066809160213 -0.0066561848053 -0.0066272554924 -0.0065937018444 -0.0065550502068 -0.0065107732225 
-0.0064602782814 -0.006402912673 -0.0063379620446 -0.0062646410377 -0.0061820948499 -0.0060893951893 -0.0059855558738 -0.0058695090152 -0.0057401491689 
-0.0055963264931 -0.005436878062 -0.0052606966863 -0.005066743736 -0.0048542184238 -0.0046224082538 -0.0043699018724 -0.004100095559 -0.003815180039 
-0.0035188558673 -0.0032165147956 -0.002915396522 -0.002624594786 -0.0023547614795 -0.0021173594747 -0.0019233503529 -0.0017813289289 -0.0016953934238 
-0.0016633198961 -0.0016759275405 -0.0017184939597 -0.0017740849349 -0.0018273821152 -0.0018671380315 -0.0068465623045 -0.0068573149085 -0.0068639940048 
-0.0068673516976 -0.0068679294301 -0.0068660305926 -0.0068617646411 -0.00685510424 -0.0068459298982 -0.0068340576563 -0.0068192514604 -0.0068012273914 
-0.0067796543604 -0.0067541495575 -0.0067242813399 -0.0066895639202 -0.0066494431114 -0.0066033037709 -0.006550460897 -0.0064901502203 -0.0064215287547 
-0.0063436582423 -0.0062555207201 -0.006155980045 -0.0060438247708 -0.0059177243761 -0.0057762860187 -0.0056180275435 -0.005441470587 -0.0052451931254 
-0.0050278519396 -0.0047885404173 -0.0045239402986 -0.0042369891699 -0.0039299209076 -0.0036062626316 -0.0032715864685 -0.0029339299721 -0.0026039640332 
-0.0022947939671 -0.0020211906794 -0.0017979888287 -0.0016375686196 -0.0015466680142 -0.0015233123425 -0.0015554495676 -0.001622697224 -0.001701462959 
-0.0017710477987 -0.001817081125 -0.0069550354329 -0.0069662386997 -0.0069735217938 -0.0069776801806 -0.0069792971084 -0.0069787080531 -0.006976044128 
-0.0069712921177 -0.0069643422638 -0.0069550169923 -0.0069430846684 -0.0069282648713 -0.0069102276696 -0.006888595254 -0.0068629360512 -0.0068327536945 
-0.006797491137 -0.0067565186145 -0.0067091287168 -0.0066545283158 -0.0065918234751 -0.0065200226507 -0.0064380066354 -0.0063445386017 -0.0062382370055 
-0.0061175955779 -0.0059809332126 -0.0058264962611 -0.0056523996332 -0.0054567195439 -0.005237590725 -0.0049932189822 -0.0047214915856 -0.0044191703654 
-0.0040910401285 -0.0037398376324 -0.0033710025741 -0.0029930788635 -0.0026181763247 -0.002262076009 -0.0019435701563 -0.0016826353655 -0.0014971667342 
-0.0013983055942 -0.0013855118991 -0.001443510914 -0.0015441639348 -0.0016542482284 -0.0017453688741 -0.00179899089 -0.007068527654 -0.0070802215552 
-0.0070881523212 -0.0070931631346 -0.0070958850449 -0.0070966909877 -0.0070957390881 -0.007093035377 -0.007088484382 -0.0070819200249 -0.0070731212699 
-0.0070618179457 -0.0070476945911 -0.0070303828461 -0.0070094582023 -0.0069844352016 -0.006954760774 -0.0069198090904 -0.0068788682235 -0.0068311298627 