# vtk DataFile Version 4.1
vtk output
ASCII
DATASET STRUCTURED_GRID
DIMENSIONS 51 51 1
POINTS 2601 float
0 0 0 0.02 0 0 0.04 0 0 
0.06 0 0 0.08 0 0 0.1 0 0 
0.12 0 0 0.14 0 0 0.16 0 0 
0.18 0 0 0.2 0 0 0.22 0 0 
0.24 0 0 0.26 0 0 0.28 0 0 
0.3 0 0 0.32 0 0 0.34 0 0 
0.36 0 0 0.38 0 0 0.4 0 0 
0.42 0 0 0.44 0 0 0.46 0 0 
0.48 0 0 0.5 0 0 0.52 0 0 
0.54 0 0 0.56 0 0 0.58 0 0 
0.6 0 0 0.62 0 0 0.64 0 0 
0.66 0 0 0.68 0 0 0.7 0 0 
0.72 0 0 0.74 0 0 0.76 0 0 
0.78 0 0 0.8 0 0 0.82 0 0 
0.84 0 0 0.86 0 0 0.88 0 0 
0.9 0 0 0.92 0 0 0.94 0 0 
0.96 0 0 0.98 0 0 1 0 0 
0 0.02 0 0.02 0.02 0 0.04 0.02 0 
0.06 0.02 0 0.08 0.02 0 0.1 0.02 0 
0.12 0.02 0 0.14 0.02 0 0.16 0.02 0 
0.18 0.02 0 0.2 0.02 0 0.22 0.02 0 
0.24 0.02 0 0.26 0.02 0 0.28 0.02 0 
0.3 0.02 0 0.32 0.02 0 0.34 0.02 0 
0.36 0.02 0 0.38 0.02 0 0.4 0.02 0 
0.42 0.02 0 0.44 0.02 0 0.46 0.02 0 
0.48 0.02 0 0.5 0.02 0 0.52 0.02 0 
0.54 0.02 0 0.56 0.02 0 0.58 0.02 0 
0.6 0.02 0 0.62 0.02 0 0.64 0.02 0 
0.66 0.02 0 0.68 0.02 0 0.7 0.02 0 
0.72 0.02 0 0.74 0.02 0 0.76 0.02 0 
0.78 0.02 0 0.8 0.02 0 0.82 0.02 0 
0.84 0.02 0 0.86 0.02 0 0.88 0.02 0 
0.9 0.02 0 0.92 0.02 0 0.94 0.02 0 
0.96 0.02 0 0.98 0.02 0 1 0.02 0 
0 0.04 0 0.02 0.04 0 0.04 0.04 0 
0.06 0.04 0 0.08 0.04 0 0.1 0.04 0 
0.12 0.04 0 0.14 0.04 0 0.16 0.04 0 
0.18 0.04 0 0.2 0.04 0 0.22 0.04 0 
0.24 0.04 0 0.26 0.04 0 0.28 0.04 0 
0.3 0.04 0 0.32 0.04 0 0.34 0.04 0 
0.36 0.04 0 0.38 0.04 0 0.4 0.04 0 
0.42 0.04 0 0.44 0.04 0 0.46 0.04 0 
0.48 0.04 0 0.5 0.04 0 0.52 0.04 0 
0.54 0.04 0 0.56 0.04 0 0.58 0.04 0 
0.6 0.04 0 0.62 0.04 0 0.64 0.04 0 
0.66 0.04 0 0.68 0.04 0 0.7 0.04 0 
0.72 0.04 0 0.74 0.04 0 0.76 0.04 0 
0.78 0.04 0 0.8 0.04 0 0.82 0.04 0 
0.84 0.04 0 0.86 0.04 0 0.88 0.04 0 
0.9 0.04 0 0.92 0.04 0 0.94 0.04 0 
0.96 0.04 0 0.98 0.04 0 1 0.04 0 
0 0.06 0 0.02 0.06 0 0.04 0.06 0 
0.06 0.06 0 0.08 0.06 0 0.1 0.06 0 
0.12 0.06 0 0.14 0.06 0 0.16 0.06 0 
0.18 0.06 0 0.2 0.06 0 0.22 0.06 0 
0.24 0.06 0 0.26 0.06 0 0.28 0.06 0 
0.3 0.06 0 0.32 0.06 0 0.34 0.06 0 
0.36 0.06 0 0.38 0.06 0 0.4 0.06 0 
0.42 0.06 0 0.44 0.06 0 0.46 0.06 0 
0.48 0.06 0 0.5 0.06 0 0.52 0.06 0 
0.54 0.06 0 0.56 0.06 0 0.58 0.06 0 
0.6 0.06 0 0.62 0.06 0 0.64 0.06 0 
0.66 0.06 0 0.68 0.06 0 0.7 0.06 0 
0.72 0.06 0 0.74 0.06 0 0.76 0.06 0 
0.78 0.06 0 0.8 0.06 0 0.82 0.06 0 
0.84 0.06 0 0.86 0.06 0 0.88 0.06 0 
0.9 0.06 0 0.92 0.06 0 0.94 0.06 0 
0.96 0.06 0 0.98 0.06 0 1 0.06 0 
0 0.08 0 0.02 0.08 0 0.04 0.08 0 
0.06 0.08 0 0.08 0.08 0 0.1 0.08 0 
0.12 0.08 0 0.14 0.08 0 0.16 0.08 0 
0.18 0.08 0 0.2 0.08 0 0.22 0.08 0 
0.24 0.08 0 0.26 0.08 0 0.28 0.08 0 
0.3 0.08 0 0.32 0.08 0 0.34 0.08 0 
0.36 0.08 0 0.38 0.08 0 0.4 0.08 0 
0.42 0.08 0 0.44 0.08 0 0.46 0.08 0 
0.48 0.08 0 0.5 0.08 0 0.52 0.08 0 
0.54 0.08 0 0.56 0.08 0 0.58 0.08 0 
0.6 0.08 0 0.62 0.08 0 0.64 0.08 0 
0.66 0.08 0 0.68 0.08 0 0.7 0.08 0 
0.72 0.08 0 0.74 0.08 0 0.76 0.08 0 
0.78 0.08 0 0.8 0.08 0 0.82 0.08 0 
0.84 0.08 0 0.86 0.08 0 0.88 0.08 0 
0.9 0.08 0 0.92 0.08 0 0.94 0.08 0 
0.96 0.08 0 0.98 0.08 0 1 0.08 0 
0 0.1 0 0.02 0.1 0 0.04 0.1 0 
0.06 0.1 0 0.08 0.1 0 0.1 0.1 0 
0.12 0.1 0 0.14 0.1 0 0.16 0.1 0 
0.18 0.1 0 0.2 0.1 0 0.22 0.1 0 
0.24 0.1 0 0.26 0.1 0 0.28 0.1 0 
0.3 0.1 0 0.32 0.1 0 0.34 0.1 0 
0.36 0.1 0 0.38 0.1 0 0.4 0.1 0 
0.42 0.1 0 0.44 0.1 0 0.46 0.1 0 
0.48 0.1 0 0.5 0.1 0 0.52 0.1 0 
0.54 0.1 0 0.56 0.1 0 0.58 0.1 0 
0.6 0.1 0 0.62 0.1 0 0.64 0.1 0 
0.66 0.1 0 0.68 0.1 0 0.7 0.1 0 
0.72 0.1 0 0.74 0.1 0 0.76 0.1 0 
0.78 0.1 0 0.8 0.1 0 0.82 0.1 0 
0.84 0.1 0 0.86 0.1 0 0.88 0.1 0 
0.9 0.1 0 0.92 0.1 0 0.94 0.1 0 
0.96 0.1 0 0.98 0.1 0 1 0.1 0 
0 0.12 0 0.02 0.12 0 0.04 0.12 0 
0.06 0.12 0 0.08 0.12 0 0.1 0.12 0 
0.12 0.12 0 0.14 0.12 0 0.16 0.12 0 
0.18 0.12 0 0.2 0.12 0 0.22 0.12 0 
0.24 0.12 0 0.26 0.12 0 0.28 0.12 0 
0.3 0.12 0 0.32 0.12 0 0.34 0.12 0 
0.36 0.12 0 0.38 0.12 0 0.4 0.12 0 
0.42 0.12 0 0.44 0.12 0 0.46 0.12 0 
0.48 0.12 0 0.5 0.12 0 0.52 0.12 0 
0.54 0.12 0 0.56 0.12 0 0.58 0.12 0 
0.6 0.12 0 0.62 0.12 0 0.64 0.12 0 
0.66 0.12 0 0.68 0.12 0 0.7 0.12 0 
0.72 0.12 0 0.74 0.12 0 0.76 0.12 0 
0.78 0.12 0 0.8 0.12 0 0.82 0.12 0 
0.84 0.12 0 0.86 0.12 0 0.88 0.12 0 
0.9 0.12 0 0.92 0.12 0 0.94 0.12 0 
0.96 0.12 0 0.98 0.12 0 1 0.12 0 
0 0.14 0 0.02 0.14 0 0.04 0.14 0 
0.06 0.14 0 0.08 0.14 0 0.1 0.14 0 
0.12 0.14 0 0.14 0.14 0 0.16 0.14 0 
0.18 0.14 0 0.2 0.14 0 0.22 0.14 0 
0.24 0.14 0 0.26 0.14 0 0.28 0.14 0 
0.3 0.14 0 0.32 0.14 0 0.34 0.14 0 
0.36 0.14 0 0.38 0.14 0 0.4 0.14 0 
0.42 0.14 0 0.44 0.14 0 0.46 0.14 0 
0.48 0.14 0 0.5 0.14 0 0.52 0.14 0 
0.54 0.14 0 0.56 0.14 0 0.58 0.14 0 
0.6 0.14 0 0.62 0.14 0 0.64 0.14 0 
0.66 0.14 0 0.68 0.14 0 0.7 0.14 0 
0.72 0.14 0 0.74 0.14 0 0.76 0.14 0 
0.78 0.14 0 0.8 0.14 0 0.82 0.14 0 
0.84 0.14 0 0.86 0.14 0 0.88 0.14 0 
0.9 0.14 0 0.92 0.14 0 0.94 0.14 0 
0.96 0.14 0 0.98 0.14 0 1 0.14 0 
0 0.16 0 0.02 0.16 0 0.04 0.16 0 
0.06 0.16 0 0.08 0.16 0 0.1 0.16 0 
0.12 0.16 0 0.14 0.16 0 0.16 0.16 0 
0.18 0.16 0 0.2 0.16 0 0.22 0.16 0 
0.24 0.16 0 0.26 0.16 0 0.28 0.16 0 
0.3 0.16 0 0.32 0.16 0 0.34 0.16 0 
0.36 0.16 0 0.38 0.16 0 0.4 0.16 0 
0.42 0.16 0 0.44 0.16 0 0.46 0.16 0 
0.48 0.16 0 0.5 0.16 0 0.52 0.16 0 
0.54 0.16 0 0.56 0.16 0 0.58 0.16 0 
0.6 0.16 0 0.62 0.16 0 0.64 0.16 0 
0.66 0.16 0 0.68 0.16 0 0.7 0.16 0 
0.72 0.16 0 0.74 0.16 0 0.76 0.16 0 
0.78 0.16 0 0.8 0.16 0 0.82 0.16 0 
0.84 0.16 0 0.86 0.16 0 0.88 0.16 0 
0.9 0.16 0 0.92 0.16 0 0.94 0.16 0 
0.96 0.16 0 0.98 0.16 0 1 0.16 0 
0 0.18 0 0.02 0.18 0 0.04 0.18 0 
0.06 0.18 0 0.08 0.18 0 0.1 0.18 0 
0.12 0.18 0 0.14 0.18 0 0.16 0.18 0 
0.18 0.18 0 0.2 0.18 0 0.22 0.18 0 
0.24 0.18 0 0.26 0.18 0 0.28 0.18 0 
0.3 0.18 0 0.32 0.18 0 0.34 0.18 0 
0.36 0.18 0 0.38 0.18 0 0.4 0.18 0 
0.42 0.18 0 0.44 0.18 0 0.46 0.18 0 
0.48 0.18 0 0.5 0.18 0 0.52 0.18 0 
0.54 0.18 0 0.56 0.18 0 0.58 0.18 0 
0.6 0.18 0 0.62 0.18 0 0.64 0.18 0 
0.66 0.18 0 0.68 0.18 0 0.7 0.18 0 
0.72 0.18 0 0.74 0.18 0 0.76 0.18 0 
0.78 0.18 0 0.8 0.18 0 0.82 0.18 0 
0.84 0.18 0 0.86 0.18 0 0.88 0.18 0 
0.9 0.18 0 0.92 0.18 0 0.94 0.18 0 
0.96 0.18 0 0.98 0.18 0 1 0.18 0 
0 0.2 0 0.02 0.2 0 0.04 0.2 0 
0.06 0.2 0 0.08 0.2 0 0.1 0.2 0 
0.12 0.2 0 0.14 0.2 0 0.16 0.2 0 
0.18 0.2 0 0.2 0.2 0 0.22 0.2 0 
0.24 0.2 0 0.26 0.2 0 0.28 0.2 0 
0.3 0.2 0 0.32 0.2 0 0.34 0.2 0 
0.36 0.2 0 0.38 0.2 0 0.4 0.2 0 
0.42 0.2 0 0.44 0.2 0 0.46 0.2 0 
0.48 0.2 0 0.5 0.2 0 0.52 0.2 0 
0.54 0.2 0 0.56 0.2 0 0.58 0.2 0 
0.6 0.2 0 0.62 0.2 0 0.64 0.2 0 
0.66 0.2 0 0.68 0.2 0 0.7 0.2 0 
0.72 0.2 0 0.74 0.2 0 0.76 0.2 0 
0.78 0.2 0 0.8 0.2 0 0.82 0.2 0 
0.84 0.2 0 0.86 0.2 0 0.88 0.2 0 
0.9 0.2 0 0.92 0.2 0 0.94 0.2 0 
0.96 0.2 0 0.98 0.2 0 1 0.2 0 
0 0.22 0 0.02 0.22 0 0.04 0.22 0 
0.06 0.22 0 0.08 0.22 0 0.1 0.22 0 
0.12 0.22 0 0.14 0.22 0 0.16 0.22 0 
0.18 0.22 0 0.2 0.22 0 0.22 0.22 0 
0.24 0.22 0 0.26 0.22 0 0.28 0.22 0 
0.3 0.22 0 0.32 0.22 0 0.34 0.22 0 
0.36 0.22 0 0.38 0.22 0 0.4 0.22 0 
0.42 0.22 0 0.44 0.22 0 0.46 0.22 0 
0.48 0.22 0 0.5 0.22 0 0.52 0.22 0 
0.54 0.22 0 0.56 0.22 0 0.58 0.22 0 
0.6 0.22 0 0.62 0.22 0 0.64 0.22 0 
0.66 0.22 0 0.68 0.22 0 0.7 0.22 0 
0.72 0.22 0 0.74 0.22 0 0.76 0.22 0 
0.78 0.22 0 0.8 0.22 0 0.82 0.22 0 
0.84 0.22 0 0.86 0.22 0 0.88 0.22 0 
0.9 0.22 0 0.92 0.22 0 0.94 0.22 0 
0.96 0.22 0 0.98 0.22 0 1 0.22 0 
0 0.24 0 0.02 0.24 0 0.04 0.24 0 
0.06 0.24 0 0.08 0.24 0 0.1 0.24 0 
0.12 0.24 0 0.14 0.24 0 0.16 0.24 0 
0.18 0.24 0 0.2 0.24 0 0.22 0.24 0 
0.24 0.24 0 0.26 0.24 0 0.28 0.24 0 
0.3 0.24 0 0.32 0.24 0 0.34 0.24 0 
0.36 0.24 0 0.38 0.24 0 0.4 0.24 0 
0.42 0.24 0 0.44 0.24 0 0.46 0.24 0 
0.48 0.24 0 0.5 0.24 0 0.52 0.24 0 
0.54 0.24 0 0.56 0.24 0 0.58 0.24 0 
0.6 0.24 0 0.62 0.24 0 0.64 0.24 0 
0.66 0.24 0 0.68 0.24 0 0.7 0.24 0 
0.72 0.24 0 0.74 0.24 0 0.76 0.24 0 
0.78 0.24 0 0.8 0.24 0 0.82 0.24 0 
0.84 0.24 0 0.86 0.24 0 0.88 0.24 0 
0.9 0.24 0 0.92 0.24 0 0.94 0.24 0 
0.96 0.24 0 0.98 0.24 0 1 0.24 0 
0 0.26 0 0.02 0.26 0 0.04 0.26 0 
0.06 0.26 0 0.08 0.26 0 0.1 0.26 0 
0.12 0.26 0 0.14 0.26 0 0.16 0.26 0 
0.18 0.26 0 0.2 0.26 0 0.22 0.26 0 
0.24 0.26 0 0.26 0.26 0 0.28 0.26 0 
0.3 0.26 0 0.32 0.26 0 0.34 0.26 0 
0.36 0.26 0 0.38 0.26 0 0.4 0.26 0 
0.42 0.26 0 0.44 0.26 0 0.46 0.26 0 
0.48 0.26 0 0.5 0.26 0 0.52 0.26 0 
0.54 0.26 0 0.56 0.26 0 0.58 0.26 0 
0.6 0.26 0 0.62 0.26 0 0.64 0.26 0 
0.66 0.26 0 0.68 0.26 0 0.7 0.26 0 
0.72 0.26 0 0.74 0.26 0 0.76 0.26 0 
0.78 0.26 0 0.8 0.26 0 0.82 0.26 0 
0.84 0.26 0 0.86 0.26 0 0.88 0.26 0 
0.9 0.26 0 0.92 0.26 0 0.94 0.26 0 
0.96 0.26 0 0.98 0.26 0 1 0.26 0 
0 0.28 0 0.02 0.28 0 0.04 0.28 0 
0.06 0.28 0 0.08 0.28 0 0.1 0.28 0 
0.12 0.28 0 0.14 0.28 0 0.16 0.28 0 
0.18 0.28 0 0.2 0.28 0 0.22 0.28 0 
0.24 0.28 0 0.26 0.28 0 0.28 0.28 0 
0.3 0.28 0 0.32 0.28 0 0.34 0.28 0 
0.36 0.28 0 0.38 0.28 0 0.4 0.28 0 
0.42 0.28 0 0.44 0.28 0 0.46 0.28 0 
0.48 0.28 0 0.5 0.28 0 0.52 0.28 0 
0.54 0.28 0 0.56 0.28 0 0.58 0.28 0 
0.6 0.28 0 0.62 0.28 0 0.64 0.28 0 
0.66 0.28 0 0.68 0.28 0 0.7 0.28 0 
0.72 0.28 0 0.74 0.28 0 0.76 0.28 0 
0.78 0.28 0 0.8 0.28 0 0.82 0.28 0 
0.84 0.28 0 0.86 0.28 0 0.88 0.28 0 
0.9 0.28 0 0.92 0.28 0 0.94 0.28 0 
0.96 0.28 0 0.98 0.28 0 1 0.28 0 
0 0.3 0 0.02 0.3 0 0.04 0.3 0 
0.06 0.3 0 0.08 0.3 0 0.1 0.3 0 
0.12 0.3 0 0.14 0.3 0 0.16 0.3 0 
0.18 0.3 0 0.2 0.3 0 0.22 0.3 0 
0.24 0.3 0 0.26 0.3 0 0.28 0.3 0 
0.3 0.3 0 0.32 0.3 0 0.34 0.3 0 
0.36 0.3 0 0.38 0.3 0 0.4 0.3 0 
0.42 0.3 0 0.44 0.3 0 0.46 0.3 0 
0.48 0.3 0 0.5 0.3 0 0.52 0.3 0 
0.54 0.3 0 0.56 0.3 0 0.58 0.3 0 
0.6 0.3 0 0.62 0.3 0 0.64 0.3 0 
0.66 0.3 0 0.68 0.3 0 0.7 0.3 0 
0.72 0.3 0 0.74 0.3 0 0.76 0.3 0 
0.78 0.3 0 0.8 0.3 0 0.82 0.3 0 
0.84 0.3 0 0.86 0.3 0 0.88 0.3 0 
0.9 0.3 0 0.92 0.3 0 0.94 0.3 0 
0.96 0.3 0 0.98 0.3 0 1 0.3 0 
0 0.32 0 0.02 0.32 0 0.04 0.32 0 
0.06 0.32 0 0.08 0.32 0 0.1 0.32 0 
0.12 0.32 0 0.14 0.32 0 0.16 0.32 0 
0.18 0.32 0 0.2 0.32 0 0.22 0.32 0 
0.24 0.32 0 0.26 0.32 0 0.28 0.32 0 
0.3 0.32 0 0.32 0.32 0 0.34 0.32 0 
0.36 0.32 0 0.38 0.32 0 0.4 0.32 0 
0.42 0.32 0 0.44 0.32 0 0.46 0.32 0 
0.48 0.32 0 0.5 0.32 0 0.52 0.32 0 
0.54 0.32 0 0.56 0.32 0 0.58 0.32 0 
[...]
CELL_DATA 2500
FIELD FieldData 2
pressure 1 2500 double
-0.0056622511735 -0.0056511885508 -0.0056744352671 -0.0057380608248 -0.0058359055845 -0.0059593507276 -0.0061030374758 -0.0062655531559 -0.0064485697323 
-0.0066544757011 -0.0068862723295 -0.0071452524705 -0.0074301325238 -0.00774075975 -0.0080730193318 -0.0084207251908 -0.0087744039433 -0.0091210573733 
-0.0094446618482 -0.0097270271054 -0.0099487476508 -0.010090104062 -0.0101318057 -0.010055686624 -0.0098455524763 -0.0094882315931 -0.0089748316643 
-0.0083021672661 -0.0074743390627 -0.0065044714301 -0.0054197566318 -0.0042797427713 -0.0031275202017 -0.0020183798868 -0.0010149437147 -0.00018217534817 
0.00041949185925 0.00074298154639 0.00076460844689 0.00049380627272 7.9269709117e-06 -0.00061171513783 -0.0012667218969 -0.0018619165108 -0.0023327029145 
-0.0026651249657 -0.0028711197459 -0.0029712703416 -0.0029870980254 -0.0029464258561 -0.005674767694 -0.005662820851 -0.0056877374634 -0.0057491646128 
-0.0058408579387 -0.0059554196114 -0.0060887286693 -0.0062393619289 -0.0064095336783 -0.006600119377 -0.0068158895295 -0.007059640042 -0.0073308686196 
-0.0076297116007 -0.0079531940763 -0.0082951526004 -0.0086460617763 -0.0089932045836 -0.0093211755501 -0.0096124880308 -0.0098481882179 -0.010008440787 
-0.010073249515 -0.010023390942 -0.0098415160693 -0.0095134096628 -0.0090292811097 -0.0083849488341 -0.0075828546376 -0.0066333029471 -0.0056007377517 
-0.0044978972403 -0.003376976409 -0.002295046046 -0.001314473383 -0.00049920151012 9.1738074471e-05 0.00041297645379 0.00044312297382 0.000195292198 
-0.00027529678471 -0.00083819975799 -0.0014358192701 -0.001972953449 -0.0023880702065 -0.0026734621222 -0.0028467000013 -0.0029319302696 -0.002949203859 
-0.0029074857345 -0.0056532689953 -0.0056410722241 -0.0056701299927 -0.0057348910811 -0.0058262203781 -0.0059351837173 -0.0060595656422 -0.0061957311221 
-0.0063504988547 -0.0065274050975 -0.0067311147339 -0.0069661554915 -0.0072348116365 -0.0075371664945 -0.0078701210859 -0.0082271937884 -0.0085986141157 
-0.0089716549906 -0.0093308928893 -0.0096584803362 -0.009934526421 -0.010137764943 -0.010246548176 -0.010240076938 -0.010099764816 -0.0098105295416 
-0.0093618620477 -0.0087484931883 -0.007969848735 -0.007075994882 -0.0060705820655 -0.0049902427946 -0.0038841484092 -0.002808925545 -0.0018266025781 
-0.0010007306113 -0.0003901654357 -4.0577818442e-05 2.5758277413e-05 -0.00017947641745 -0.00060263949986 -0.0011477850283 -0.0017043139508 -0.0022085253234 
-0.0025829156615 -0.0028153201749 -0.0029435471992 -0.0029971903727 -0.0029980451037 -0.0029467423683 -0.0055877619584 -0.0055828881852 -0.0056217174648 
-0.0056947887567 -0.0057897096166 -0.0058961020954 -0.0060120834271 -0.0061383486276 -0.0062832234315 -0.0064543722383 -0.0066592324971 -0.0069039376451 
-0.0071915532781 -0.0075217630592 -0.0078907517064 -0.0082912238335 -0.008712705085 -0.0091415752638 -0.0095610908982 -0.0099515994378 -0.010291114487 
-0.010556328474 -0.010723949018 -0.010772175658 -0.010682037745 -0.010438523495 -0.010031533107 -0.0094567716362 -0.0087229977427 -0.0078647374942 
-0.006884574765 -0.0058210261485 -0.0047212076395 -0.0036399974413 -0.0026379277672 -0.0017774334343 -0.0011170370557 -0.00070338845023 -0.00056162597548 
-0.00068549067641 -0.0010302170229 -0.0015133898832 -0.0020299626655 -0.0024959239809 -0.0028512169596 -0.0030479148083 -0.003136836164 -0.0031582925691 
-0.0031405691449 -0.0030875213285 -0.0054743792815 -0.0054850123132 -0.0055395250374 -0.0056240010122 -0.0057245079485 -0.0058325252879 -0.0059465652281 
-0.0060730874454 -0.0062230079446 -0.006407750657 -0.0066372244273 -0.0069180236994 -0.0072527974222 -0.0076401978327 -0.0080750248135 -0.0085486311873 
-0.0090488426978 -0.0095598911071 -0.010062534297 -0.010534529495 -0.010951657564 -0.011289100085 -0.01152294044 -0.011631512386 -0.011596534929 
-0.011404023963 -0.011044986346 -0.010515877814 -0.009838124556 -0.0090107775896 -0.008055887908 -0.0070075124155 -0.0059092585695 -0.0048127786742 
-0.0037756976693 -0.0028582250038 -0.0021179605082 -0.0016027350544 -0.0013418836095 -0.0013372690509 -0.0015567230415 -0.0019339559086 -0.0023788527654 
-0.0027981525674 -0.0031102620276 -0.0033063762586 -0.003376431393 -0.00338171319 -0.003356181014 -0.0033113424783 -0.0053127641475 -0.0053462157549 
-0.0054193891129 -0.005516488023 -0.00562813494 -0.0057442671036 -0.0058691718508 -0.0060137886654 -0.0061920903663 -0.0064177246922 -0.0067009528399 
-0.0070476873915 -0.007459266413 -0.007932600721 -0.0084607616006 -0.0090328695487 -0.0096340655845 -0.010245626683 -0.010845390313 -0.011408805503 
-0.011910295676 -0.01232471916 -0.012628676692 -0.012801604089 -0.012826634328 -0.012691329464 -0.012388489395 -0.011917105962 -0.011289532664 
-0.010501562292 -0.0095761104003 -0.0085443186536 -0.0074457521697 -0.0063276849406 -0.0052435562903 -0.0042502173884 -0.0034035824385 -0.0027525144088 
-0.0023312369835 -0.0021513348238 -0.002195412097 -0.0024153299189 -0.0027376787545 -0.003077015546 -0.0033552708405 -0.0035312186132 -0.0036145773754 
-0.0036307200655 -0.0036148382405 -0.003586484143 -0.0051082498848 -0.0051698096738 -0.0052629181722 -0.0053775297959 -0.0055036028411 -0.0056400071976 
-0.0057948209513 -0.0059818946925 -0.0062168463477 -0.0065129741588 -0.0068794084987 -0.0073204094081 -0.0078353106695 -0.0084191468356 -0.0090624926876 
-0.0097515228242 -0.010468174247 -0.011190597075 -0.011894293209 -0.01255343256 -0.01314226583 -0.013636360446 -0.014013583153 -0.0142548626 
-0.014344857357 -0.014272728443 -0.014033023292 -0.013626832172 -0.01305221697 -0.012309283112 -0.011418213071 -0.010406344701 -0.0093084282872 
-0.0081663805058 -0.0070283341042 -0.0059466646121 -0.0049746517903 -0.0041615862361 -0.0035464919211 -0.0031512056004 -0.0029742717398 -0.0029877209487 
-0.0031388595511 -0.0033586079292 -0.0035774552804 -0.0037487566892 -0.0038500408839 -0.0038861803687 -0.0038961704835 -0.0038897626329 -0.0048777981078 
-0.004970917459 -0.0050835322306 -0.0052164794654 -0.0053677295521 -0.0055414617527 -0.0057487250909 -0.0060045746228 -0.0063235787614 -0.0067171959251 
-0.0071923936982 -0.0077511039292 -0.008390661386 -0.009103454777 -0.0098770014364 -0.010694145357 -0.011533563639 -0.012371049063 -0.013180806495 
-0.013936849007 -0.014614159044 -0.015189541938 -0.015642297054 -0.015954801979 -0.016113183023 -0.016108022818 -0.015935207816 -0.015596957218 
-0.015079613794 -0.014386677451 -0.013535240344 -0.012548324442 -0.01145526502 -0.010291845674 -0.0090999356506 -0.0079263281048 -0.0068204866244 
-0.005831006313 -0.0050008114481 -0.0043614965148 -0.003927721571 -0.0036930397165 -0.0036287664833 -0.0036874066603 -0.0038116980436 -0.0039484477023 
-0.0040606630615 -0.0041487833167 -0.0041965306369 -0.0042146821368 -0.0046494911898 -0.0047718740565 -0.0049037242724 -0.0050615013565 -0.0052509930089 
-0.0054803741974 -0.0057620247516 -0.0061095925342 -0.006535186684 -0.0070475321203 -0.0076508183285 -0.0083447371809 -0.0091237865895 -0.0099771750097 
-0.010888965991 -0.011838609532 -0.012802368354 -0.013754628907 -0.014669347681 -0.015521152349 -0.016286092961 -0.01694226646 -0.017470328464 
-0.017854077302 -0.018081030377 -0.018143073284 -0.018037154185 -0.017765985709 -0.017308105957 -0.016668900251 -0.0158623416 -0.014906940209 
-0.013826300311 -0.012649561743 -0.011411538453 -0.010152345003 -0.008916267877 -0.0077496517564 -0.0066976901134 -0.0058002413859 -0.0050870997911 
-0.0045734687455 -0.0042566170676 -0.0041147927906 -0.0041094868576 -0.0041922069823 -0.0043168737439 -0.0044425195095 -0.004526882537 -0.0045698816529 
-0.0044595001291 -0.0046056173534 -0.0047596677259 -0.0049504209937 -0.0051910329053 -0.0054922039821 -0.0058652851296 -0.0063212301629 -0.0068690501848 
-0.0075142626828 -0.0082584728104 -0.0090982582518 -0.010024698921 -0.011023335633 -0.012074625998 -0.013155458763 -0.014240486689 -0.015303664457 
-0.016319328329 -0.01726289575 -0.018111499867 -0.018844455872 -0.019443811334 -0.019894844662 -0.020186563803 -0.020312148028 -0.020269332516 
-0.020060897985 -0.019662007975 -0.019078665828 -0.018321839013 -0.017405621934 -0.016347855561 -0.015170763769 -0.013901523908 -0.012572620546 
-0.011221780107 -0.0098912636776 -0.0086263166277 -0.0074726552505 -0.0064730095662 -0.0056628949785 -0.0050658875801 -0.0046887756074 -0.0045172192113 
-0.004513435185 -0.0046193944082 -0.0047673656261 -0.0049004124803 -0.0049711896788 -0.0043484087992 -0.0045148875538 -0.004692683636 -0.0049233983337 
-0.0052251902622 -0.0056089704386 -0.0060837826196 -0.0066575526111 -0.0073359111891 -0.0081215071876 -0.0090125665928 -0.010001912442 -0.011076637372 
-0.012218349275 -0.013404666264 -0.01461055878 -0.01580996775 -0.016976890033 -0.018086084118 -0.019113768775 -0.020038079303 -0.020839652378 
-0.02150210632 -0.022012439134 -0.022361292738 -0.022543095887 -0.022556254816 -0.022403375924 -0.02206044236 -0.021533340272 -0.020830303733 
-0.019961286333 -0.018938563635 -0.0177774861 -0.01649735716 -0.015122368192 -0.013682462695 -0.012213929684 -0.010759479062 -0.009367525851 
-0.0080903850899 -0.0069810168063 -0.0060878641291 -0.0054472918876 -0.005073462152 -0.0049470586748 -0.0050087657876 -0.0051693535827 -0.0053426513997 
-0.0054403515275 -0.0043545683384 -0.0045367051692 -0.0047398203038 -0.0050152572197 -0.0053836105781 -0.0058545513739 -0.0064347093018 -0.0071289180099 
-0.0079399212874 -0.0088669188145 -0.0099040807789 -0.011039899741 -0.012257127557 -0.013534129066 -0.014846199528 -0.016167212448 -0.017470721967 
-0.018730703296 -0.019922353432 -0.021022577021 -0.022010676279 -0.02286886783 -0.023582642492 -0.024140939189 -0.024536128872 -0.024763972124 
-0.024823528902 -0.024717173827 -0.024425140893 -0.023952975421 -0.023306481106 -0.022491903227 -0.021516438885 -0.020388986368 -0.019121175598 
-0.017728691295 -0.016232834063 -0.014662195575 -0.013054238001 -0.011456433765 -0.0099264264963 -0.0085303999178 -0.0073385034284 -0.0064159077171 
-0.0058083231466 -0.0055227411761 -0.0055100468192 -0.0056670535713 -0.0058694776955 -0.0059943685081 -0.0045055474128 -0.0046993751233 -0.0049284651055 
-0.005250137614 -0.0056853981137 -0.0062425553856 -0.0069259573447 -0.0077379595975 -0.0086781539528 -0.0097416153514 -0.010917964099 -0.012190976193 
-0.013539698053 -0.014939716662 -0.016364756511 -0.017787810858 -0.019181905076 -0.020521010979 -0.021780594707 -0.022938473755 -0.023975413874 
-0.024875516231 -0.025626391067 -0.026219062999 -0.026647795505 -0.026909784543 -0.027004893638 -0.026935405329 -0.02668795323 -0.026267828723 
-0.025678764066 -0.024923899065 -0.024006134296 -0.022928758714 -0.021696445875 -0.020316699951 -0.018801811012 -0.017171332653 -0.015454960971 
-0.0136954734 -0.011951058677 -0.010295884437 -0.0088171267884 -0.0076061010849 -0.0067411086412 -0.0062614178922 -0.0061380819639 -0.0062615353747 
-0.0064733411371 -0.0066420365018 -0.0048174397847 -0.0050192937683 -0.0052733222896 -0.0056392420612 -0.0061377535293 -0.0067759581365 -0.007556555734 
-0.0084794895692 -0.0095405703927 -0.010730382484 -0.012033641547 -0.01343001558 -0.014895352688 -0.016403163481 -0.017925785848 -0.019435140479 
-0.020903745792 -0.022305351371 -0.023615986774 -0.024814683534 -0.025883948576 -0.02681001625 -0.027582746954 -0.028195417793 -0.028644313068 
-0.028928272792 -0.029048163202 -0.029006329976 -0.028796605962 -0.028424185378 -0.027891157394 -0.027198335972 -0.026345390086 -0.025331229771 
-0.02415475802 -0.02281616244 -0.021318960013 -0.019672943298 -0.017898047626 -0.01602890579 -0.014119406742 -0.012245887868 -0.010506691411 
-0.0090148476623 -0.0078801693535 -0.0071784479099 -0.0069117404127 -0.0069802736174 -0.007207885118 -0.0074075872871 -0.0052938202311 -0.0054998954979 
-0.0057757923203 -0.0061813633562 -0.0067367524809 -0.007448295914 -0.0083173281756 -0.0093408293269 -0.010510564388 -0.011812351884 -0.013226596925 
-0.014729489017 -0.016294358688 -0.017892878674 -0.019495787367 -0.021073971867 -0.022599205893 -0.024045370828 -0.025389354342 -0.026611651321 
-0.027696762721 -0.02863314161 -0.02941304188 -0.030032091121 -0.030488758846 -0.030783662036 -0.030918754738 -0.030896566169 -0.03071779026 
-0.030387540717 -0.02990679366 -0.029274944777 -0.028489677094 -0.027546983712 -0.026441513493 -0.025167508386 -0.023720625091 -0.022100962375 
-0.020317528 -0.018394084323 -0.01637579538 -0.014335270595 -0.012375408659 -0.010625036911 -0.0092222780052 -0.0082812647612 -0.0078434224284 
-0.0078314219846 -0.0080557320109 -0.0082906513258 -0.0059263878303 -0.0061323407647 -0.0064255754739 -0.0068647240707 -0.0074693076422 -0.0082451566923 
-0.0091917465477 -0.010302832569 -0.011565944981 -0.012962702384 -0.014469984943 -0.016061197895 -0.01770751477 -0.019378576697 -0.021043596912 
-0.022672218098 -0.024235859512 -0.025708844059 -0.027069146674 -0.028298994489 -0.029384916219 -0.030317713404 -0.031092090246 -0.031706119645 
-0.032160483174 -0.03245751249 -0.032600218022 -0.032591140179 -0.032437084581 -0.032142713705 -0.031708492496 -0.031133334676 -0.030414151263 
-0.029545501419 -0.028519495614 -0.027326201018 -0.025954967858 -0.024397169488 -0.022650779832 -0.020727012832 -0.018658725757 -0.016509316284 
-0.014379373715 -0.01240648316 -0.010751801664 -0.009566719482 -0.0089372862736 -0.0088203002576 -0.0090244529472 -0.0092916031215 -0.0066966614262 
-0.0068978137981 -0.0072032909516 -0.0076695234929 -0.0083153520384 -0.0091455719248 -0.010157400384 -0.011341209476 -0.012680788349 -0.014154467594 
-0.015736338223 -0.017397532908 -0.019106943332 -0.020832295991 -0.022541142984 -0.024202280597 -0.025787140429 -0.027270698377 -0.028632309793 
-0.029855928746 -0.030930243945 -0.031848442895 -0.032607730018 -0.033208549298 -0.033653555016 -0.033946617385 -0.034091871397 -0.034090462016 
-0.033956063454 -0.033691128832 -0.033296420214 -0.032771159376 -0.032112504646 -0.031314940403 -0.030369732558 -0.029264763443 -0.027985189505 
-0.026515485001 -0.024843586753 -0.022967738838 -0.020906121997 -0.018708331156 -0.016466060213 -0.014317994541 -0.012441334616 -0.011020887686 
-0.010189397072 -0.0099474694862 -0.010115190557 -0.010406837185 -0.0075785846395 -0.0077705372163 -0.0080833225903 -0.0085705291773 -0.0092496462194 
-0.01012376499 -0.011187596102 -0.012428479456 -0.013827411792 -0.015360222733 -0.016998860972 -0.018712177278 -0.020466927064 -0.0222289021 
-0.023964378483 -0.025641766532 -0.02723270772 -0.028713152733 -0.030063815729 -0.031270514236 -0.032324147136 -0.033220323972 -0.033958614846 
-0.034541474698 -0.034973163018 -0.03525866594 -0.035402783571 -0.035407390524 -0.035287808233 -0.035046074078 -0.0346833886 -0.034199712606 
-0.033593149355 -0.032859144248 -0.031989631166 -0.03097233632 -0.029790603977 -0.028424457911 -0.026853825226 -0.025064889648 -0.023060231761 
-0.020872364553 -0.01857834061 -0.016310285924 -0.014253316423 -0.012619473888 -0.011587142572 -0.011207817194 -0.011326997165 -0.011641373258 
-0.0085416318009 -0.0087207057865 -0.0090365524838 -0.0095391198179 -0.010243596596 -0.011150885105 -0.012253306036 -0.013536016248 -0.014978035901 
-0.016553421136 -0.018232109636 -0.019980816044 -0.021764278752 -0.023546720988 -0.02529370394 -0.026973459976 -0.028558186929 -0.030024795976 
-0.03135548859 -0.032538026323 -0.033565554607 -0.034435955873 -0.035150791424 -0.035714121921 -0.036131305756 -0.03640800233 -0.036549483062 
-0.036559124075 -0.036450825393 -0.036226895882 -0.035889078369 -0.035438234832 -0.034873768259 -0.03419280271 -0.033389139991 -0.032452075785 
-0.03136546333 -0.030107650979 -0.028653332811 -0.026978751055 -0.025071532365 -0.022945473325 -0.020658577129 -0.018329374025 -0.016142287168 
-0.01432858474 -0.013108157753 -0.012586753129 -0.012646683869 -0.012974533228 -0.0095536777256 -0.0097171629852 -0.010032477476 -0.010545030097 
-0.011266987693 -0.012196863281 -0.013325174362 -0.014635670357 -0.016106125068 -0.01770907998 -0.019412583664 -0.021181460574 -0.022978785048 
-0.024767843628 -0.026513754114 -0.028184923867 -0.029754126749 -0.031199340557 -0.032504367049 -0.033658950161 -0.034658341751 -0.035502352411 
-0.036194109065 -0.036738745393 -0.037142265744 -0.03741073075 -0.037549634761 -0.037563817386 -0.037464370945 -0.037253901822 -0.036934624459 
-0.036508283789 -0.035975721336 -0.035336113859 -0.034585830265 -0.033717004043 -0.032715957306 -0.031561994677 -0.030227724209 -0.028682553971 
-0.026901289007 -0.024879146175 -0.02265239298 -0.020320137826 -0.01805771054 -0.016106398739 -0.014720708458 -0.014060231033 -0.014053102745 
-0.01438592452 -0.01058344941 -0.010729361607 -0.011040710143 -0.011557896004 -0.012289637655 -0.01323225148 -0.014375065401 -0.015701059587 
-0.01718708879 -0.018804269325 -0.020519072895 -0.022294785287 -0.024093468536 -0.025877868171 -0.02761299486 -0.029267511253 -0.030814852255 
-0.032234199406 -0.033510995726 -0.034636845646 -0.035608792106 -0.036428137689 -0.037099073976 -0.037627404242 -0.038019486916 -0.038281456655 
-0.038418713177 -0.038437316551 -0.038345051828 -0.038144628208 -0.037838602491 -0.037429502718 -0.036919548065 -0.03630998703 -0.035600047988 
-0.034785383617 -0.033856067938 -0.03279456282 -0.031574503422 -0.030162076438 -0.028522585902 -0.026634550558 -0.024511756596 -0.022229737116 
-0.019947208071 -0.017905834689 -0.016385777721 -0.015596656444 -0.01551843611 -0.015848636872 -0.011602459587 -0.011728355435 -0.012032092299 
-0.012548573462 -0.01328294071 -0.014229640106 -0.015377246654 -0.01670826599 -0.018198685634 -0.01981848438 -0.021532915886 -0.023304352597 
-0.025094389598 -0.026865546208 -0.028582879782 -0.030215399921 -0.031737344107 -0.033129150209 -0.03437780402 -0.035476465632 -0.036423542149 
-0.037221364579 -0.03787483812 -0.038390143513 -0.038773722491 -0.039031491049 -0.039168495176 -0.039191273876 -0.039104949637 -0.038911943851 
-0.038614973913 -0.038217201887 -0.037722050459 -0.037132681097 -0.036451039794 -0.035676382315 -0.034803218277 -0.0338186738 -0.032699976509 
-0.031413747805 -0.029919880281 -0.028183508807 -0.026197111524 -0.024010491244 -0.021759723087 -0.019677583392 -0.018059693441 -0.017158993098 
-0.017009868028 -0.017331227594 -0.012586834666 -0.012686467005 -0.01297947329 -0.013490305826 -0.014221116977 -0.01516469147 -0.016309036994 
-0.017636163503 -0.019121364782 -0.0207338383 -0.022438191373 -0.024196542368 -0.025970344471 -0.027722110284 -0.029417082712 -0.031024745703 
-0.03252022328 -0.033885150762 -0.035107745435 -0.03618232303 -0.037108198928 -0.037888406605 -0.038528275369 -0.039034162859 -0.039412336715 
-0.039668348644 -0.03980674358 -0.039832324617 -0.039751350073 -0.039563778708 -0.039272612969 -0.038881597211 -0.038395149497 -0.037817981948 
-0.037154370508 -0.036406936024 -0.035574655883 -0.034650017259 -0.033615698306 -0.032441933805 -0.031087416996 -0.029508210665 -0.027678388445 
-0.025621958449 -0.023448256204 -0.021373019214 -0.019696787517 -0.018706922416 -0.018491366436 -0.018799414763 -0.013509961443 -0.013586927034 
-0.013858882924 -0.014359845413 -0.015082119114 -0.016016712251 -0.01715108654 -0.018466679869 -0.019938414647 -0.021535221612 -0.023221756381 
-0.024960271551 -0.026712344427 -0.028440691774 -0.030110851403 -0.031692921069 -0.033162923229 -0.034503368063 -0.035703339446 -0.036757844238 
-0.037666770237 -0.038433577896 -0.039063843058 -0.039563837592 -0.039939468462 -0.040195648329 -0.040336211857 -0.040364441388 -0.040287788878 
-0.040103908231 -0.03981602683 -0.039428306631 -0.038945910979 -0.038374755793 -0.03772098165 -0.036990014184 -0.036184919252 -0.035303652308 
-0.034335250317 -0.033255854621 -0.032026847466 -0.030599952888 -0.028934992071 -0.027032065739 -0.02497185566 -0.022946630597 -0.021251799065 
-0.020198860202 -0.019925281689 -0.020217454142 -0.01434853187 -0.014413589405 -0.014658892145 -0.015138040682 -0.015848225076 -0.016768876422 