# vtk DataFile Version 4.1
vtk output
ASCII
DATASET STRUCTURED_GRID
DIMENSIONS 51 51 1
POINTS 2601 float
0 0 0 0.02 0 0 0.04 0 0 
0.06 0 0 0.08 0 0 0.1 0 0 
0.12 0 0 0.14 0 0 0.16 0 0 
0.18 0 0 0.2 0 0 0.22 0 0 
0.24 0 0 0.26 0 0 0.28 0 0 
0.3 0 0 0.32 0 0 0.34 0 0 
0.36 0 0 0.38 0 0 0.4 0 0 
0.42 0 0 0.44 0 0 0.46 0 0 
0.48 0 0 0.5 0 0 0.52 0 0 
0.54 0 0 0.56 0 0 0.58 0 0 
0.6 0 0 0.62 0 0 0.64 0 0 
0.66 0 0 0.68 0 0 0.7 0 0 
0.72 0 0 0.74 0 0 0.76 0 0 
0.78 0 0 0.8 0 0 0.82 0 0 
0.84 0 0 0.86 0 0 0.88 0 0 
0.9 0 0 0.92 0 0 0.94 0 0 
0.96 0 0 0.98 0 0 1 0 0 
0 0.02 0 0.02 0.02 0 0.04 0.02 0 
0.06 0.02 0 0.08 0.02 0 0.1 0.02 0 
0.12 0.02 0 0.14 0.02 0 0.16 0.02 0 
0.18 0.02 0 0.2 0.02 0 0.22 0.02 0 
0.24 0.02 0 0.26 0.02 0 0.28 0.02 0 
0.3 0.02 0 0.32 0.02 0 0.34 0.02 0 
0.36 0.02 0 0.38 0.02 0 0.4 0.02 0 
0.42 0.02 0 0.44 0.02 0 0.46 0.02 0 
0.48 0.02 0 0.5 0.02 0 0.52 0.02 0 
0.54 0.02 0 0.56 0.02 0 0.58 0.02 0 
0.6 0.02 0 0.62 0.02 0 0.64 0.02 0 
0.66 0.02 0 0.68 0.02 0 0.7 0.02 0 
0.72 0.02 0 0.74 0.02 0 0.76 0.02 0 
0.78 0.02 0 0.8 0.02 0 0.82 0.02 0 
0.84 0.02 0 0.86 0.02 0 0.88 0.02 0 
0.9 0.02 0 0.92 0.02 0 0.94 0.02 0 
0.96 0.02 0 0.98 0.02 0 1 0.02 0 
0 0.04 0 0.02 0.04 0 0.04 0.04 0 
0.06 0.04 0 0.08 0.04 0 0.1 0.04 0 
0.12 0.04 0 0.14 0.04 0 0.16 0.04 0 
0.18 0.04 0 0.2 0.04 0 0.22 0.04 0 
0.24 0.04 0 0.26 0.04 0 0.28 0.04 0 
0.3 0.04 0 0.32 0.04 0 0.34 0.04 0 
0.36 0.04 0 0.38 0.04 0 0.4 0.04 0 
0.42 0.04 0 0.44 0.04 0 0.46 0.04 0 
0.48 0.04 0 0.5 0.04 0 0.52 0.04 0 
0.54 0.04 0 0.56 0.04 0 0.58 0.04 0 
0.6 0.04 0 0.62 0.04 0 0.64 0.04 0 
0.66 0.04 0 0.68 0.04 0 0.7 0.04 0 
0.72 0.04 0 0.74 0.04 0 0.76 0.04 0 
0.78 0.04 0 0.8 0.04 0 0.82 0.04 0 
0.84 0.04 0 0.86 0.04 0 0.88 0.04 0 
0.9 0.04 0 0.92 0.04 0 0.94 0.04 0 
0.96 0.04 0 0.98 0.04 0 1 0.04 0 
0 0.06 0 0.02 0.06 0 0.04 0.06 0 
0.06 0.06 0 0.08 0.06 0 0.1 0.06 0 
0.12 0.06 0 0.14 0.06 0 0.16 0.06 0 
0.18 0.06 0 0.2 0.06 0 0.22 0.06 0 
0.24 0.06 0 0.26 0.06 0 0.28 0.06 0 
0.3 0.06 0 0.32 0.06 0 0.34 0.06 0 
0.36 0.06 0 0.38 0.06 0 0.4 0.06 0 
0.42 0.06 0 0.44 0.06 0 0.46 0.06 0 
0.48 0.06 0 0.5 0.06 0 0.52 0.06 0 
0.54 0.06 0 0.56 0.06 0 0.58 0.06 0 
0.6 0.06 0 0.62 0.06 0 0.64 0.06 0 
0.66 0.06 0 0.68 0.06 0 0.7 0.06 0 
0.72 0.06 0 0.74 0.06 0 0.76 0.06 0 
0.78 0.06 0 0.8 0.06 0 0.82 0.06 0 
0.84 0.06 0 0.86 0.06 0 0.88 0.06 0 
0.9 0.06 0 0.92 0.06 0 0.94 0.06 0 
0.96 0.06 0 0.98 0.06 0 1 0.06 0 
0 0.08 0 0.02 0.08 0 0.04 0.08 0 
0.06 0.08 0 0.08 0.08 0 0.1 0.08 0 
0.12 0.08 0 0.14 0.08 0 0.16 0.08 0 
0.18 0.08 0 0.2 0.08 0 0.22 0.08 0 
0.24 0.08 0 0.26 0.08 0 0.28 0.08 0 
0.3 0.08 0 0.32 0.08 0 0.34 0.08 0 
0.36 0.08 0 0.38 0.08 0 0.4 0.08 0 
0.42 0.08 0 0.44 0.08 0 0.46 0.08 0 
0.48 0.08 0 0.5 0.08 0 0.52 0.08 0 
0.54 0.08 0 0.56 0.08 0 0.58 0.08 0 
0.6 0.08 0 0.62 0.08 0 0.64 0.08 0 
0.66 0.08 0 0.68 0.08 0 0.7 0.08 0 
0.72 0.08 0 0.74 0.08 0 0.76 0.08 0 
0.78 0.08 0 0.8 0.08 0 0.82 0.08 0 
0.84 0.08 0 0.86 0.08 0 0.88 0.08 0 
0.9 0.08 0 0.92 0.08 0 0.94 0.08 0 
0.96 0.08 0 0.98 0.08 0 1 0.08 0 
0 0.1 0 0.02 0.1 0 0.04 0.1 0 
0.06 0.1 0 0.08 0.1 0 0.1 0.1 0 
0.12 0.1 0 0.14 0.1 0 0.16 0.1 0 
0.18 0.1 0 0.2 0.1 0 0.22 0.1 0 
0.24 0.1 0 0.26 0.1 0 0.28 0.1 0 
0.3 0.1 0 0.32 0.1 0 0.34 0.1 0 
0.36 0.1 0 0.38 0.1 0 0.4 0.1 0 
0.42 0.1 0 0.44 0.1 0 0.46 0.1 0 
0.48 0.1 0 0.5 0.1 0 0.52 0.1 0 
0.54 0.1 0 0.56 0.1 0 0.58 0.1 0 
0.6 0.1 0 0.62 0.1 0 0.64 0.1 0 
0.66 0.1 0 0.68 0.1 0 0.7 0.1 0 
0.72 0.1 0 0.74 0.1 0 0.76 0.1 0 
0.78 0.1 0 0.8 0.1 0 0.82 0.1 0 
0.84 0.1 0 0.86 0.1 0 0.88 0.1 0 
0.9 0.1 0 0.92 0.1 0 0.94 0.1 0 
0.96 0.1 0 0.98 0.1 0 1 0.1 0 
0 0.12 0 0.02 0.12 0 0.04 0.12 0 
0.06 0.12 0 0.08 0.12 0 0.1 0.12 0 
0.12 0.12 0 0.14 0.12 0 0.16 0.12 0 
0.18 0.12 0 0.2 0.12 0 0.22 0.12 0 
0.24 0.12 0 0.26 0.12 0 0.28 0.12 0 
0.3 0.12 0 0.32 0.12 0 0.34 0.12 0 
0.36 0.12 0 0.38 0.12 0 0.4 0.12 0 
0.42 0.12 0 0.44 0.12 0 0.46 0.12 0 
0.48 0.12 0 0.5 0.12 0 0.52 0.12 0 
0.54 0.12 0 0.56 0.12 0 0.58 0.12 0 
0.6 0.12 0 0.62 0.12 0 0.64 0.12 0 
0.66 0.12 0 0.68 0.12 0 0.7 0.12 0 
0.72 0.12 0 0.74 0.12 0 0.76 0.12 0 
0.78 0.12 0 0.8 0.12 0 0.82 0.12 0 
0.84 0.12 0 0.86 0.12 0 0.88 0.12 0 
0.9 0.12 0 0.92 0.12 0 0.94 0.12 0 
0.96 0.12 0 0.98 0.12 0 1 0.12 0 
0 0.14 0 0.02 0.14 0 0.04 0.14 0 
0.06 0.14 0 0.08 0.14 0 0.1 0.14 0 
0.12 0.14 0 0.14 0.14 0 0.16 0.14 0 
0.18 0.14 0 0.2 0.14 0 0.22 0.14 0 
0.24 0.14 0 0.26 0.14 0 0.28 0.14 0 
0.3 0.14 0 0.32 0.14 0 0.34 0.14 0 
0.36 0.14 0 0.38 0.14 0 0.4 0.14 0 
0.42 0.14 0 0.44 0.14 0 0.46 0.14 0 
0.48 0.14 0 0.5 0.14 0 0.52 0.14 0 
0.54 0.14 0 0.56 0.14 0 0.58 0.14 0 
0.6 0.14 0 0.62 0.14 0 0.64 0.14 0 
0.66 0.14 0 0.68 0.14 0 0.7 0.14 0 
0.72 0.14 0 0.74 0.14 0 0.76 0.14 0 
0.78 0.14 0 0.8 0.14 0 0.82 0.14 0 
0.84 0.14 0 0.86 0.14 0 0.88 0.14 0 
0.9 0.14 0 0.92 0.14 0 0.94 0.14 0 
0.96 0.14 0 0.98 0.14 0 1 0.14 0 
0 0.16 0 0.02 0.16 0 0.04 0.16 0 
0.06 0.16 0 0.08 0.16 0 0.1 0.16 0 
0.12 0.16 0 0.14 0.16 0 0.16 0.16 0 
0.18 0.16 0 0.2 0.16 0 0.22 0.16 0 
0.24 0.16 0 0.26 0.16 0 0.28 0.16 0 
0.3 0.16 0 0.32 0.16 0 0.34 0.16 0 
0.36 0.16 0 0.38 0.16 0 0.4 0.16 0 
0.42 0.16 0 0.44 0.16 0 0.46 0.16 0 
0.48 0.16 0 0.5 0.16 0 0.52 0.16 0 
0.54 0.16 0 0.56 0.16 0 0.58 0.16 0 
0.6 0.16 0 0.62 0.16 0 0.64 0.16 0 
0.66 0.16 0 0.68 0.16 0 0.7 0.16 0 
0.72 0.16 0 0.74 0.16 0 0.76 0.16 0 
0.78 0.16 0 0.8 0.16 0 0.82 0.16 0 
0.84 0.16 0 0.86 0.16 0 0.88 0.16 0 
0.9 0.16 0 0.92 0.16 0 0.94 0.16 0 
0.96 0.16 0 0.98 0.16 0 1 0.16 0 
0 0.18 0 0.02 0.18 0 0.04 0.18 0 
0.06 0.18 0 0.08 0.18 0 0.1 0.18 0 
0.12 0.18 0 0.14 0.18 0 0.16 0.18 0 
0.18 0.18 0 0.2 0.18 0 0.22 0.18 0 
0.24 0.18 0 0.26 0.18 0 0.28 0.18 0 
0.3 0.18 0 0.32 0.18 0 0.34 0.18 0 
0.36 0.18 0 0.38 0.18 0 0.4 0.18 0 
0.42 0.18 0 0.44 0.18 0 0.46 0.18 0 
0.48 0.18 0 0.5 0.18 0 0.52 0.18 0 
0.54 0.18 0 0.56 0.18 0 0.58 0.18 0 
0.6 0.18 0 0.62 0.18 0 0.64 0.18 0 
0.66 0.18 0 0.68 0.18 0 0.7 0.18 0 
0.72 0.18 0 0.74 0.18 0 0.76 0.18 0 
0.78 0.18 0 0.8 0.18 0 0.82 0.18 0 
0.84 0.18 0 0.86 0.18 0 0.88 0.18 0 
0.9 0.18 0 0.92 0.18 0 0.94 0.18 0 
0.96 0.18 0 0.98 0.18 0 1 0.18 0 
0 0.2 0 0.02 0.2 0 0.04 0.2 0 
0.06 0.2 0 0.08 0.2 0 0.1 0.2 0 
0.12 0.2 0 0.14 0.2 0 0.16 0.2 0 
0.18 0.2 0 0.2 0.2 0 0.22 0.2 0 
0.24 0.2 0 0.26 0.2 0 0.28 0.2 0 
0.3 0.2 0 0.32 0.2 0 0.34 0.2 0 
0.36 0.2 0 0.38 0.2 0 0.4 0.2 0 
0.42 0.2 0 0.44 0.2 0 0.46 0.2 0 
0.48 0.2 0 0.5 0.2 0 0.52 0.2 0 
0.54 0.2 0 0.56 0.2 0 0.58 0.2 0 
0.6 0.2 0 0.62 0.2 0 0.64 0.2 0 
0.66 0.2 0 0.68 0.2 0 0.7 0.2 0 
0.72 0.2 0 0.74 0.2 0 0.76 0.2 0 
0.78 0.2 0 0.8 0.2 0 0.82 0.2 0 
0.84 0.2 0 0.86 0.2 0 0.88 0.2 0 
0.9 0.2 0 0.92 0.2 0 0.94 0.2 0 
0.96 0.2 0 0.98 0.2 0 1 0.2 0 
0 0.22 0 0.02 0.22 0 0.04 0.22 0 
0.06 0.22 0 0.08 0.22 0 0.1 0.22 0 
0.12 0.22 0 0.14 0.22 0 0.16 0.22 0 
0.18 0.22 0 0.2 0.22 0 0.22 0.22 0 
0.24 0.22 0 0.26 0.22 0 0.28 0.22 0 
0.3 0.22 0 0.32 0.22 0 0.34 0.22 0 
0.36 0.22 0 0.38 0.22 0 0.4 0.22 0 
0.42 0.22 0 0.44 0.22 0 0.46 0.22 0 
0.48 0.22 0 0.5 0.22 0 0.52 0.22 0 
0.54 0.22 0 0.56 0.22 0 0.58 0.22 0 
0.6 0.22 0 0.62 0.22 0 0.64 0.22 0 
0.66 0.22 0 0.68 0.22 0 0.7 0.22 0 
0.72 0.22 0 0.74 0.22 0 0.76 0.22 0 
0.78 0.22 0 0.8 0.22 0 0.82 0.22 0 
0.84 0.22 0 0.86 0.22 0 0.88 0.22 0 
0.9 0.22 0 0.92 0.22 0 0.94 0.22 0 
0.96 0.22 0 0.98 0.22 0 1 0.22 0 
0 0.24 0 0.02 0.24 0 0.04 0.24 0 
0.06 0.24 0 0.08 0.24 0 0.1 0.24 0 
0.12 0.24 0 0.14 0.24 0 0.16 0.24 0 
0.18 0.24 0 0.2 0.24 0 0.22 0.24 0 
0.24 0.24 0 0.26 0.24 0 0.28 0.24 0 
0.3 0.24 0 0.32 0.24 0 0.34 0.24 0 
0.36 0.24 0 0.38 0.24 0 0.4 0.24 0 
0.42 0.24 0 0.44 0.24 0 0.46 0.24 0 
0.48 0.24 0 0.5 0.24 0 0.52 0.24 0 
0.54 0.24 0 0.56 0.24 0 0.58 0.24 0 
0.6 0.24 0 0.62 0.24 0 0.64 0.24 0 
0.66 0.24 0 0.68 0.24 0 0.7 0.24 0 
0.72 0.24 0 0.74 0.24 0 0.76 0.24 0 
0.78 0.24 0 0.8 0.24 0 0.82 0.24 0 
0.84 0.24 0 0.86 0.24 0 0.88 0.24 0 
0.9 0.24 0 0.92 0.24 0 0.94 0.24 0 
0.96 0.24 0 0.98 0.24 0 1 0.24 0 
0 0.26 0 0.02 0.26 0 0.04 0.26 0 
0.06 0.26 0 0.08 0.26 0 0.1 0.26 0 
0.12 0.26 0 0.14 0.26 0 0.16 0.26 0 
0.18 0.26 0 0.2 0.26 0 0.22 0.26 0 
0.24 0.26 0 0.26 0.26 0 0.28 0.26 0 
0.3 0.26 0 0.32 0.26 0 0.34 0.26 0 
0.36 0.26 0 0.38 0.26 0 0.4 0.26 0 
0.42 0.26 0 0.44 0.26 0 0.46 0.26 0 
0.48 0.26 0 0.5 0.26 0 0.52 0.26 0 
0.54 0.26 0 0.56 0.26 0 0.58 0.26 0 
0.6 0.26 0 0.62 0.26 0 0.64 0.26 0 
0.66 0.26 0 0.68 0.26 0 0.7 0.26 0 
0.72 0.26 0 0.74 0.26 0 0.76 0.26 0 
0.78 0.26 0 0.8 0.26 0 0.82 0.26 0 
0.84 0.26 0 0.86 0.26 0 0.88 0.26 0 
0.9 0.26 0 0.92 0.26 0 0.94 0.26 0 
0.96 0.26 0 0.98 0.26 0 1 0.26 0 
0 0.28 0 0.02 0.28 0 0.04 0.28 0 
0.06 0.28 0 0.08 0.28 0 0.1 0.28 0 
0.12 0.28 0 0.14 0.28 0 0.16 0.28 0 
0.18 0.28 0 0.2 0.28 0 0.22 0.28 0 
0.24 0.28 0 0.26 0.28 0 0.28 0.28 0 
0.3 0.28 0 0.32 0.28 0 0.34 0.28 0 
0.36 0.28 0 0.38 0.28 0 0.4 0.28 0 
0.42 0.28 0 0.44 0.28 0 0.46 0.28 0 
0.48 0.28 0 0.5 0.28 0 0.52 0.28 0 
0.54 0.28 0 0.56 0.28 0 0.58 0.28 0 
0.6 0.28 0 0.62 0.28 0 0.64 0.28 0 
0.66 0.28 0 0.68 0.28 0 0.7 0.28 0 
0.72 0.28 0 0.74 0.28 0 0.76 0.28 0 
0.78 0.28 0 0.8 0.28 0 0.82 0.28 0 
0.84 0.28 0 0.86 0.28 0 0.88 0.28 0 
0.9 0.28 0 0.92 0.28 0 0.94 0.28 0 
0.96 0.28 0 0.98 0.28 0 1 0.28 0 
0 0.3 0 0.02 0.3 0 0.04 0.3 0 
0.06 0.3 0 0.08 0.3 0 0.1 0.3 0 
0.12 0.3 0 0.14 0.3 0 0.16 0.3 0 
0.18 0.3 0 0.2 0.3 0 0.22 0.3 0 
0.24 0.3 0 0.26 0.3 0 0.28 0.3 0 
0.3 0.3 0 0.32 0.3 0 0.34 0.3 0 
0.36 0.3 0 0.38 0.3 0 0.4 0.3 0 
0.42 0.3 0 0.44 0.3 0 0.46 0.3 0 
0.48 0.3 0 0.5 0.3 0 0.52 0.3 0 
0.54 0.3 0 0.56 0.3 0 0.58 0.3 0 
0.6 0.3 0 0.62 0.3 0 0.64 0.3 0 
0.66 0.3 0 0.68 0.3 0 0.7 0.3 0 
0.72 0.3 0 0.74 0.3 0 0.76 0.3 0 
0.78 0.3 0 0.8 0.3 0 0.82 0.3 0 
0.84 0.3 0 0.86 0.3 0 0.88 0.3 0 
0.9 0.3 0 0.92 0.3 0 0.94 0.3 0 
0.96 0.3 0 0.98 0.3 0 1 0.3 0 
0 0.32 0 0.02 0.32 0 0.04 0.32 0 
0.06 0.32 0 0.08 0.32 0 0.1 0.32 0 
0.12 0.32 0 0.14 0.32 0 0.16 0.32 0 
0.18 0.32 0 0.2 0.32 0 0.22 0.32 0 
0.24 0.32 0 0.26 0.32 0 0.28 0.32 0 
0.3 0.32 0 0.32 0.32 0 0.34 0.32 0 
0.36 0.32 0 0.38 0.32 0 0.4 0.32 0 
0.42 0.32 0 0.44 0.32 0 0.46 0.32 0 
0.48 0.32 0 0.5 0.32 0 0.52 0.32 0 
0.54 0.32 0 0.56 0.32 0 0.58 0.32 0 
[...]
CELL_DATA 2500
FIELD FieldData 2
pressure 1 2500 double
-0.0063212823823 -0.0063253178072 -0.0063499199728 -0.0063933981243 -0.0064524126274 -0.0065243898171 -0.0066078200653 -0.0067027512113 -0.00681024848 
-0.0069315077807 -0.007067319175 -0.0072184720892 -0.0073848108566 -0.0075645580268 -0.0077549120281 -0.0079514293646 -0.0081480613341 -0.0083372824211 
-0.0085099204093 -0.0086551254797 -0.0087605471652 -0.0088125506713 -0.0087967725267 -0.0086990106269 -0.0085061845832 -0.0082073788757 -0.0077950218773 
-0.0072660772721 -0.0066232869228 -0.0058766346401 -0.0050452448861 -0.0041739269301 -0.0032962293902 -0.0024539556207 -0.0016943078538 -0.0010655907648 
-0.00061164271583 -0.00036501181985 -0.00033966048611 -0.00052467901699 -0.00086727312091 -0.0013055516753 -0.0017707579576 -0.002198545424 -0.0025452564388 
-0.0027980035173 -0.0029610683331 -0.0030452226762 -0.0030635052257 -0.0030359955452 -0.00632494747 -0.0063302164448 -0.0063536910624 -0.0063933723346 
-0.0064470684097 -0.0065126646317 -0.0065898331863 -0.0066789293076 -0.0067800429727 -0.0068948017549 -0.0070237910885 -0.0071672066691 -0.0073246645906 
-0.0074950474717 -0.0076759693538 -0.0078638343 -0.008053817869 -0.0082393579497 -0.0084119459803 -0.0085611166307 -0.0086744475195 -0.0087379852075 
-0.0087370195486 -0.0086569023324 -0.0084840379242 -0.008207024826 -0.0078176551323 -0.0073119295022 -0.0066909617198 -0.0059614422183 -0.0051665011179 
-0.0043242642475 -0.0034713148459 -0.0026505389261 -0.0019087961656 -0.0012935371565 -0.00084752691441 -0.00060211410668 -0.00056987291607 -0.00073797220062 
-0.0010646965443 -0.0014627878179 -0.0018856967505 -0.0022718705209 -0.0025799615291 -0.0028009854913 -0.0029425958857 -0.003017631383 -0.0030377613163 
-0.0030095102101 -0.0063100529056 -0.0063158816297 -0.0063387529278 -0.0063763069236 -0.0064261938558 -0.0064873242749 -0.0065600770661 -0.0066441751335 
-0.0067403216974 -0.0068498614055 -0.0069733090985 -0.0071111482593 -0.0072638913093 -0.0074311383972 -0.0076116221644 -0.0078031337983 -0.0080016596597 
-0.0082009857516 -0.0083925621713 -0.0085653192078 -0.0087059381718 -0.0087995467535 -0.0088304374368 -0.008782971416 -0.0086426998955 -0.008397287808 
-0.008037506003 -0.0075580909087 -0.0069582106718 -0.0062599942171 -0.0054897673364 -0.004664424815 -0.0038215913404 -0.0030042855352 -0.0022593862495 
-0.0016343648695 -0.0011722618972 -0.00090518109856 -0.00084696047075 -0.00098632054956 -0.00128271814 -0.0016681947479 -0.0020643440499 -0.0024273197221 
-0.0027081545502 -0.0028958802327 -0.0030096237781 -0.0030655333207 -0.0030757671767 -0.0030402505556 -0.0062729171636 -0.0062819174586 -0.0063062024145 
-0.0063429267282 -0.0063909948171 -0.0064502165528 -0.0065202434612 -0.0066015976794 -0.006695573115 -0.00680319921 -0.0069258141466 -0.0070653041583 
-0.0072230886251 -0.0074001101979 -0.0075966061006 -0.007810963274 -0.008039156759 -0.0082745103134 -0.0085073205713 -0.0087250355466 -0.008912883534 
-0.0090545396279 -0.009132978918 -0.0091315183652 -0.0090347691407 -0.0088296153801 -0.0085062660502 -0.0080591107952 -0.0074871069835 -0.0068238989079 
-0.0060714733691 -0.0052570092531 -0.0044160631502 -0.0035905656162 -0.0028267031395 -0.0021716948389 -0.0016690736731 -0.0013525615821 -0.0012390407889 
-0.0013218432563 -0.0015666127873 -0.0019130600036 -0.0022863626311 -0.0026262165717 -0.0028945492463 -0.0030594133042 -0.0031484766629 -0.0031844462343 
-0.0031832100398 -0.003145841651 -0.0062143812751 -0.0062297671734 -0.0062570043691 -0.0062949849428 -0.0063438037691 -0.006403021015 -0.0064733005676 
-0.0065561166617 -0.0066527658554 -0.0067653127185 -0.0068968770632 -0.007050442984 -0.0072289264504 -0.0074348164494 -0.007668692212 -0.0079285536474 
-0.0082095210726 -0.008503246276 -0.0087980370246 -0.0090794848088 -0.0093310508295 -0.0095348911159 -0.0096728388769 -0.0097273445833 -0.0096824279524 
-0.0095248062845 -0.0092448997713 -0.0088378917198 -0.0083051983565 -0.0076712398362 -0.0069383936613 -0.0061331968715 -0.0052893259586 -0.004446808358 
-0.0036502513454 -0.002945970819 -0.0023777788569 -0.001981425349 -0.0017780945108 -0.0017680273483 -0.0019262429827 -0.0022030550549 -0.0025320120484 
-0.0028452939512 -0.0030903268044 -0.0032545592372 -0.0033306455318 -0.0033557918699 -0.0033494340034 -0.0033172498994 -0.0061383912307 -0.0061627032346 
-0.0061949087089 -0.0062362881166 -0.0062875950146 -0.0063499616783 -0.0064253357101 -0.0065153955142 -0.0066226904977 -0.006751318656 -0.0069055910003 
-0.0070900732904 -0.0073092425443 -0.0075656727622 -0.0078592460935 -0.0081868203077 -0.0085414469227 -0.0089124200913 -0.0092859608196 -0.0096456890139 
-0.0099734046078 -0.010250064341 -0.010456651209 -0.010575130329 -0.010589474884 -0.010486680179 -0.010257725584 -0.0098985368487 -0.009414793436 
-0.0088128757598 -0.0081023495981 -0.0073069933244 -0.0064576880259 -0.0055916349392 -0.0047509365278 -0.003980236298 -0.0033231659505 -0.0028175409417 
-0.0024895744732 -0.0023479594199 -0.0023793176468 -0.0025471034603 -0.002795914586 -0.0030618434205 -0.0032876784671 -0.0034404702803 -0.003526161934 
-0.0035572758175 -0.0035567310637 -0.0035357772098 -0.0060518203254 -0.0060873689435 -0.0061262441158 -0.0061724980181 -0.0062291754043 -0.0062994461349 
-0.006385764755 -0.0064911585456 -0.0066204205708 -0.0067788940158 -0.0069724747148 -0.0072073249183 -0.0074878204862 -0.0078156176835 -0.0081893038999 
-0.0086034056019 -0.0090483833753 -0.0095113407634 -0.0099763821376 -0.010425330775 -0.010838722993 -0.01119660949 -0.011479463674 -0.011669170696 
-0.011749970352 -0.011709397879 -0.011539221088 -0.011236249948 -0.010806390152 -0.010242564039 -0.0095585970076 -0.008775387715 -0.0079204510701 
-0.00702739428 -0.0061349364922 -0.0052851727465 -0.0045208290875 -0.0038813859447 -0.0033981793285 -0.0030890746766 -0.0029537368759 -0.0029710698908 
-0.0031004090271 -0.0032877534212 -0.0034778469853 -0.0036314225361 -0.0037296439416 -0.0037751572823 -0.0037915225302 -0.003786287364 -0.0059654390128 
-0.0060137770136 -0.0060605148432 -0.0061137373532 -0.0061798794407 -0.0062632796346 -0.0063678491599 -0.006499029623 -0.0066629458996 -0.0068664939055 
-0.0071172352619 -0.0074211636026 -0.0077816105937 -0.0081989037774 -0.0086691544984 -0.0091841724062 -0.0097321863285 -0.010298060039 -0.010863947836 
-0.011410305596 -0.011916633546 -0.012362307889 -0.012727596596 -0.012994522022 -0.013147759005 -0.013175509345 -0.013070331479 -0.012829992971 
-0.012455905497 -0.011936102429 -0.011283452633 -0.010516168646 -0.0096580835974 -0.00873858225 -0.0077921592715 -0.0068573975235 -0.0059751301743 
-0.0051856091599 -0.0045246692974 -0.004019187374 -0.0036824495447 -0.003510498057 -0.0034806804002 -0.0035537857449 -0.0036809807482 -0.0038156429553 
-0.0039251049562 -0.0040062180335 -0.0040497964451 -0.0040632600331 -0.0058936756641 -0.0059555169187 -0.0060110353211 -0.0060741677733 -0.0061538891598 
-0.006256318571 -0.0063879772226 -0.0065557988752 -0.0067674281291 -0.0070315514768 -0.0073556249572 -0.007744568614 -0.0082004475398 -0.0087210863433 
-0.0092998164119 -0.0099262098134 -0.010586133326 -0.011262328042 -0.01193542599 -0.012584637899 -0.013188535636 -0.013726084307 -0.014177514505 
-0.014525119675 -0.014754099921 -0.014853301691 -0.01481592355 -0.014640267989 -0.014323720303 -0.013851386819 -0.01323437394 -0.012487971753 
-0.011632020676 -0.010691167583 -0.0096949219974 -0.008677338724 -0.007676125851 -0.0067309492491 -0.0058808123723 -0.0051605287908 -0.0045965619891 
-0.004202790646 -0.0039769741224 -0.0038990682638 -0.0039327960424 -0.0040323898118 -0.0041553774708 -0.0042664128951 -0.00433759925 -0.0043712904523 
-0.0058535286918 -0.0059283292897 -0.0059939876134 -0.0060696992274 -0.0061671467674 -0.0062954039415 -0.006462761737 -0.0066776463782 -0.0069496715761 
-0.0072876316243 -0.0076979678506 -0.0081844840396 -0.0087468418437 -0.0093800680729 -0.010075274747 -0.010819567975 -0.011596499991 -0.012387093819 
-0.013170464824 -0.013924580538 -0.014627338611 -0.015257440149 -0.015795182883 -0.016223271087 -0.016527514228 -0.016697406483 -0.016726687289 
-0.016613915829 -0.016354003312 -0.015930471663 -0.015352650259 -0.014632855963 -0.013786797371 -0.01283403916 -0.011798466277 -0.010708620501 
-0.0095977240424 -0.0085031389102 -0.0074650691637 -0.0065243052356 -0.0057189618975 -0.0050802510933 -0.0046275485587 -0.0043633857245 -0.0042695016754 
-0.0043063867585 -0.0044197502451 -0.0045527318229 -0.0046632077929 -0.0047206240387 -0.0058621716931 -0.0059491064074 -0.0060257926031 -0.0061163161211 
-0.0062361022327 -0.0063964623204 -0.006607178681 -0.0068788193471 -0.0072214740019 -0.0076430715807 -0.0081491665879 -0.0087413975299 -0.0094166675058 
-0.010167837136 -0.010983500021 -0.011848250907 -0.012743710574 -0.013649081773 -0.014541881053 -0.015399089903 -0.016198042442 -0.016917257459 
-0.017537289935 -0.018041434671 -0.01841622315 -0.018651888419 -0.018742754123 -0.018687566335 -0.018480290428 -0.018104694545 -0.017568513554 
-0.016881241211 -0.016054514773 -0.015102704586 -0.014043671383 -0.012899622467 -0.01169793653 -0.010471747999 -0.0092600414423 -0.0081068887743 
-0.0070594800784 -0.0061645379336 -0.005462787607 -0.0049813975491 -0.0047249528486 -0.004667433336 -0.0047511364621 -0.0049001142787 -0.0050452795083 
-0.0051267212193 -0.0059358807025 -0.0060333391867 -0.0061211463602 -0.0062288866041 -0.006375083492 -0.0065726228383 -0.0068335097423 -0.0071692526694 
-0.0075893166578 -0.0081010354467 -0.0087081844834 -0.0094097656754 -0.010200628919 -0.011071148346 -0.012007243097 -0.012991371802 -0.01400304586 
-0.015019498783 -0.016016904844 -0.016971329054 -0.017859595696 -0.018660265147 -0.019354385671 -0.019925996945 -0.020362575695 -0.020655329704 
-0.02079932395 -0.020793558744 -0.020632210389 -0.020301609073 -0.019808101887 -0.01915865095 -0.018361142681 -0.017424962615 -0.016361867307 
-0.01518718555 -0.013921298633 -0.012591243665 -0.011232171551 -0.0098882066935 -0.0086121362675 -0.0074631069506 -0.006501387263 -0.0057793022475 
-0.0053280848979 -0.0051426035946 -0.0051709166042 -0.0053223174975 -0.005496024446 -0.0056029039607 -0.0060878750341 -0.0061931518399 -0.0062921278776 
-0.0064191215489 -0.0065945820236 -0.0068335499594 -0.007149412391 -0.0075533504059 -0.0080545452273 -0.0086590714872 -0.0093683114909 -0.010179391454 
-0.011084832219 -0.012072245173 -0.013125258716 -0.014223996301 -0.01534565016 -0.016465739847 -0.017559145013 -0.018601032773 -0.019567961641 
-0.020438782487 -0.021195185102 -0.021822247723 -0.022308719376 -0.022647043597 -0.022833269253 -0.022866879675 -0.022742962447 -0.022452643719 
-0.022001119816 -0.021393297333 -0.020633886308 -0.019727815618 -0.01868105943 -0.017501982797 -0.016203250351 -0.014804233348 -0.013333708834 
-0.01183239419 -0.010354571436 -0.0089676424432 -0.0077481046003 -0.0067722081814 -0.0060999610939 -0.0057533208841 -0.0056951129931 -0.0058259273213 
-0.0060146509135 -0.0061584082965 -0.0063264329328 -0.0064366468685 -0.0065467869781 -0.0066940557163 -0.0069009198597 -0.0071840667048 -0.0075568323577 
-0.0080303578624 -0.008613162118 -0.0093093166649 -0.01011856415 -0.011036008769 -0.012051442574 -0.013150121554 -0.01431322008 -0.015518258315 
-0.016740377288 -0.017953439634 -0.019131014033 -0.020247622975 -0.021279802011 -0.022206807314 -0.023011295504 -0.023679722114 -0.024202379417 
-0.024573249536 -0.024789679212 -0.024851890544 -0.02475622901 -0.024500187463 -0.024088114923 -0.023523435084 -0.022808469766 -0.02194458642 
-0.020932793546 -0.019774983603 -0.018475975465 -0.017046445386 -0.015506657986 -0.013890581254 -0.012249584596 -0.010654350435 -0.0091929810659 
-0.0079626877798 -0.0070524934196 -0.0065162956146 -0.0063415938534 -0.0064328565877 -0.0066396614878 -0.006812312046 -0.0066545647679 -0.0067671970723 
-0.0068879126149 -0.0070559646209 -0.0072954725155 -0.0076232119136 -0.0080525248782 -0.0085944440815 -0.0092559980503 -0.010039905021 -0.010944332689 
-0.01196185972 -0.013079966693 -0.014281478591 -0.01554480046 -0.016845149899 -0.018155710106 -0.019448644767 -0.020696474644 -0.021873314953 
-0.022955775957 -0.023923846134 -0.024761468997 -0.025456713289 -0.026001686248 -0.026392183145 -0.02662707348 -0.026707534528 -0.026631472699 
-0.026403023992 -0.026026009706 -0.025503056652 -0.024835107405 -0.024021194522 -0.023058648467 -0.021943979331 -0.020674750213 -0.019252683617 
-0.017688060346 -0.016005185775 -0.014248199377 -0.012485719152 -0.010811869017 -0.0093402761943 -0.0081871972346 -0.0074412581867 -0.007122918416 
-0.0071516928411 -0.0073614435739 -0.0075661227076 -0.0070702900149 -0.0071828516475 -0.0073132983826 -0.007502312841 -0.0077740143917 -0.0081448936409 
-0.0086284934028 -0.0092349015803 -0.009970094936 -0.010835754344 -0.011827913831 -0.012936994594 -0.014148228365 -0.015441672242 -0.016793294944 
-0.018176167483 -0.019561467974 -0.020919941326 -0.022223317488 -0.023445403332 -0.024563199753 -0.0255577386 -0.026414445534 -0.027123212723 
-0.027678161145 -0.028077012179 -0.028320228733 -0.028410117867 -0.028346397646 -0.028138655 -0.027790617843 -0.027304872756 -0.02668209332 
-0.025920422953 -0.02501516003 -0.023959094456 -0.02274388094 -0.02136286501 -0.019815734986 -0.018115032828 -0.016293916982 -0.014413673082 
-0.01256827564 -0.010881898301 -0.009494208153 -0.0085288197892 -0.0080450964549 -0.0079886048111 -0.0081866871108 -0.0084212362244 -0.0075667569326 
-0.0076769026271 -0.0078163885454 -0.0080255285023 -0.0083274836844 -0.0087387593296 -0.0092723495164 -0.0099375247083 -0.010739748026 -0.011679123885 
-0.01274978541 -0.013940238383 -0.015233137675 -0.01660610941 -0.018032936516 -0.019484512039 -0.020930317438 -0.022339974642 -0.023684531112 
-0.024937793332 -0.026077482201 -0.027085841754 -0.027949946729 -0.028661678159 -0.029217159803 -0.029615916682 -0.029859974226 -0.029952739731 
-0.029895868112 -0.029702194161 -0.029375825094 -0.028920039227 -0.028336332444 -0.027623428811 -0.026776445217 -0.025786495113 -0.024641244407 
-0.023327102647 -0.021833667746 -0.020160744713 -0.01832766827 -0.016383634324 -0.014416217753 -0.012553374413 -0.010952539717 -0.0097699963989 
-0.0091072889655 -0.0089457947127 -0.0091176074428 -0.0093768881873 -0.0081329184083 -0.0082389429813 -0.0083864400462 -0.008613745643 -0.0089432081001 
-0.0093907686973 -0.0099686309966 -0.010685900671 -0.011547099141 -0.012550776171 -0.013689582392 -0.014949825238 -0.01631187959 -0.017751305135 
-0.01923970588 -0.020746135468 -0.022238714523 -0.023686075045 -0.025058897718 -0.026331345053 -0.027482022518 -0.028494545517 -0.029357817965 
-0.03006560054 -0.030615777469 -0.03100950562 -0.031250061698 -0.031341718608 -0.031287892294 -0.03110225389 -0.03078969372 -0.030354778354 
-0.029800748853 -0.029128245214 -0.028333920263 -0.027409299257 -0.026340430652 -0.025109073171 -0.023696325486 -0.022089519362 -0.020292586276 
-0.018338892708 -0.016303791913 -0.014311840359 -0.012531202942 -0.011146190173 -0.010300993929 -0.010020498091 -0.010153988787 -0.010435899242 
-0.0087548720095 -0.0088554698725 -0.0090092330277 -0.0092522412065 -0.0096056739702 -0.010084332895 -0.010700218914 -0.011462029807 -0.012373120177 
-0.013431001919 -0.014626658073 -0.015944399303 -0.017362794973 -0.018855416126 -0.020392038957 -0.021940256058 -0.023467011536 -0.02494027574 
-0.026330735784 -0.027613092631 -0.028767003639 -0.029777660013 -0.030635639693 -0.031336335026 -0.031879168505 -0.032266405696 -0.032502046507 
-0.032590915468 -0.032537735728 -0.03235497245 -0.032048560466 -0.031624803706 -0.031089312942 -0.030445534107 -0.029693031793 -0.028825719107 
-0.02783052404 -0.026687307765 -0.025371205582 -0.023858705172 -0.022138251812 -0.02022496193 -0.018177045547 -0.016108687998 -0.014190964598 
-0.012629620235 -0.011609039526 -0.011202205589 -0.01128659158 -0.011583715447 -0.0094169299176 -0.0095106393045 -0.0096685769118 -0.0099244442274 
-0.01029752081 -0.010801808377 -0.011449069573 -0.01224714139 -0.013198686309 -0.014300136936 -0.015540871705 -0.016903756465 -0.018365739716 
-0.019898733193 -0.021471113498 -0.023049266866 -0.024599292329 -0.026088883141 -0.027488937345 -0.028774875051 -0.029927613395 -0.030933790621 
-0.031785464638 -0.032479437962 -0.033016054104 -0.033398032886 -0.033629601116 -0.03371582024 -0.033661875978 -0.033477864943 -0.033170925765 
-0.032749194606 -0.032220875916 -0.03159277434 -0.03086829386 -0.030045209157 -0.029113539427 -0.028054160011 -0.02683947074 -0.025437878117 
-0.023823721331 -0.021993074227 -0.019983531601 -0.017892760042 -0.015886727085 -0.014184563041 -0.013005669196 -0.012472349582 -0.012499510792 
-0.012804657888 -0.010102332849 -0.010187615728 -0.010347501443 -0.010612808359 -0.011000979624 -0.011525354985 -0.012196863958 -0.013022749504 
-0.014005087746 -0.015139156615 -0.016413285167 -0.017809202096 -0.019302509461 -0.020863931036 -0.022460779586 -0.024058563325 -0.025622932323 
-0.027121534005 -0.028525677748 -0.029811699136 -0.030961710449 -0.031963646607 -0.032810847778 -0.033500927933 -0.034034507285 -0.034414243709 
-0.034644063993 -0.034728669645 -0.034673281926 -0.034485119622 -0.034172331273 -0.033744830227 -0.033213496643 -0.032588562964 -0.031877628175 
-0.03108326182 -0.030200234343 -0.029213007955 -0.028094598158 -0.026808880372 -0.025318898716 -0.023602688484 -0.021675504512 -0.0196136495 
-0.017570435828 -0.015769558889 -0.014458024081 -0.013805399967 -0.01377074888 -0.014077276054 -0.01079428986 -0.010869695401 -0.011028930345 
-0.011299991942 -0.011698773601 -0.012237419131 -0.012925959808 -0.013771226996 -0.014774529329 -0.015930434312 -0.017226637653 -0.01864394427 
-0.020157095361 -0.021736052801 -0.023347391304 -0.024956147526 -0.026527799219 -0.028030170741 -0.029435159169 -0.030720007556 -0.031867898392 
-0.032867892447 -0.033714103 -0.034404381124 -0.034939178458 -0.035320504622 -0.035551287758 -0.035635673006 -0.035578763007 -0.035384521445 
-0.035062010134 -0.034622881623 -0.03408037846 -0.033447982891 -0.032737519472 -0.03195656474 -0.031105502019 -0.030174251207 -0.02913946485 
-0.027964392996 -0.026604704005 -0.025023018731 -0.023212408393 -0.021224726609 -0.019194184486 -0.017340159895 -0.01592829761 -0.015170427993 
-0.015073419488 -0.01537576748 -0.011477186271 -0.011540846206 -0.011696479618 -0.01196967529 -0.012374498374 -0.012921549059 -0.013620072654 
-0.014476258358 -0.015490875105 -0.016658254077 -0.017965628983 -0.019393328044 -0.020915740981 -0.022502392658 -0.024119531808 -0.025732063497 
-0.027305546205 -0.028808149571 -0.030212392253 -0.031496338782 -0.032644070451 -0.033645371221 -0.034494612621 -0.035189528883 -0.035729873331 
-0.036116368678 -0.036350796677 -0.036436350421 -0.036378003387 -0.03617654937 -0.035841986986 -0.035387295979 -0.034827878992 -0.034180233459 
-0.033459873222 -0.032679089067 -0.031844050413 -0.03095109808 -0.029982801288 -0.02890552965 -0.027672005843 -0.026233334878 -0.024562429054 
-0.022685587014 -0.020713049338 -0.018851670908 -0.017376035824 -0.016532837889 -0.016377157736 -0.016671307906 -0.012138000851 -0.012185641535 
-0.012335067296 -0.012607032499 -0.013013278155 -0.013563097713 -0.014264655368 -0.015123454636 -0.016140161131 -0.017309023295 -0.018617164916 
-0.02004499345 -0.021566872954 -0.023152300113 -0.024767610894 -0.026377899369 -0.027948968845 -0.029449414915 -0.030852354567 -0.032136497231 
-0.033286491336 -0.03429235901 -0.035148428295 -0.035851888818 -0.036401280341 -0.036796042482 -0.037036395908 -0.037123992962 -0.037064356427 
-0.036855375875 -0.036507547842 -0.036035184909 -0.035455714055 -0.034787955873 -0.034050551937 -0.033259918119 -0.032427481363 -0.031556155642 
-0.030635860877 -0.02963899917 -0.028519695677 -0.027222294921 -0.025703068341 -0.023963585578 -0.022087222392 -0.020261480608 -0.018760275379 
-0.017856089815 -0.017649493227 -0.017933220924 -0.012760155934 -0.012797724452 -0.012931405541 -0.013199295286 -0.013602344329 -0.014149628415 