# vtk DataFile Version 4.1
vtk output
ASCII
DATASET STRUCTURED_GRID
DIMENSIONS 51 51 1
POINTS 2601 float
0 0 0 0.02 0 0 0.04 0 0 
0.06 0 0 0.08 0 0 0.1 0 0 
0.12 0 0 0.14 0 0 0.16 0 0 
0.18 0 0 0.2 0 0 0.22 0 0 
0.24 0 0 0.26 0 0 0.28 0 0 
0.3 0 0 0.32 0 0 0.34 0 0 
0.36 0 0 0.38 0 0 0.4 0 0 
0.42 0 0 0.44 0 0 0.46 0 0 
0.48 0 0 0.5 0 0 0.52 0 0 
0.54 0 0 0.56 0 0 0.58 0 0 
0.6 0 0 0.62 0 0 0.64 0 0 
0.66 0 0 0.68 0 0 0.7 0 0 
0.72 0 0 0.74 0 0 0.76 0 0 
0.78 0 0 0.8 0 0 0.82 0 0 
0.84 0 0 0.86 0 0 0.88 0 0 
0.9 0 0 0.92 0 0 0.94 0 0 
0.96 0 0 0.98 0 0 1 0 0 
0 0.02 0 0.02 0.02 0 0.04 0.02 0 
0.06 0.02 0 0.08 0.02 0 0.1 0.02 0 
0.12 0.02 0 0.14 0.02 0 0.16 0.02 0 
0.18 0.02 0 0.2 0.02 0 0.22 0.02 0 
0.24 0.02 0 0.26 0.02 0 0.28 0.02 0 
0.3 0.02 0 0.32 0.02 0 0.34 0.02 0 
0.36 0.02 0 0.38 0.02 0 0.4 0.02 0 
0.42 0.02 0 0.44 0.02 0 0.46 0.02 0 
0.48 0.02 0 0.5 0.02 0 0.52 0.02 0 
0.54 0.02 0 0.56 0.02 0 0.58 0.02 0 
0.6 0.02 0 0.62 0.02 0 0.64 0.02 0 
0.66 0.02 0 0.68 0.02 0 0.7 0.02 0 
0.72 0.02 0 0.74 0.02 0 0.76 0.02 0 
0.78 0.02 0 0.8 0.02 0 0.82 0.02 0 
0.84 0.02 0 0.86 0.02 0 0.88 0.02 0 
0.9 0.02 0 0.92 0.02 0 0.94 0.02 0 
0.96 0.02 0 0.98 0.02 0 1 0.02 0 
0 0.04 0 0.02 0.04 0 0.04 0.04 0 
0.06 0.04 0 0.08 0.04 0 0.1 0.04 0 
0.12 0.04 0 0.14 0.04 0 0.16 0.04 0 
0.18 0.04 0 0.2 0.04 0 0.22 0.04 0 
0.24 0.04 0 0.26 0.04 0 0.28 0.04 0 
0.3 0.04 0 0.32 0.04 0 0.34 0.04 0 
0.36 0.04 0 0.38 0.04 0 0.4 0.04 0 
0.42 0.04 0 0.44 0.04 0 0.46 0.04 0 
0.48 0.04 0 0.5 0.04 0 0.52 0.04 0 
0.54 0.04 0 0.56 0.04 0 0.58 0.04 0 
0.6 0.04 0 0.62 0.04 0 0.64 0.04 0 
0.66 0.04 0 0.68 0.04 0 0.7 0.04 0 
0.72 0.04 0 0.74 0.04 0 0.76 0.04 0 
0.78 0.04 0 0.8 0.04 0 0.82 0.04 0 
0.84 0.04 0 0.86 0.04 0 0.88 0.04 0 
0.9 0.04 0 0.92 0.04 0 0.94 0.04 0 
0.96 0.04 0 0.98 0.04 0 1 0.04 0 
0 0.06 0 0.02 0.06 0 0.04 0.06 0 
0.06 0.06 0 0.08 0.06 0 0.1 0.06 0 
0.12 0.06 0 0.14 0.06 0 0.16 0.06 0 
0.18 0.06 0 0.2 0.06 0 0.22 0.06 0 
0.24 0.06 0 0.26 0.06 0 0.28 0.06 0 
0.3 0.06 0 0.32 0.06 0 0.34 0.06 0 
0.36 0.06 0 0.38 0.06 0 0.4 0.06 0 
0.42 0.06 0 0.44 0.06 0 0.46 0.06 0 
0.48 0.06 0 0.5 0.06 0 0.52 0.06 0 
0.54 0.06 0 0.56 0.06 0 0.58 0.06 0 
0.6 0.06 0 0.62 0.06 0 0.64 0.06 0 
0.66 0.06 0 0.68 0.06 0 0.7 0.06 0 
0.72 0.06 0 0.74 0.06 0 0.76 0.06 0 
0.78 0.06 0 0.8 0.06 0 0.82 0.06 0 
0.84 0.06 0 0.86 0.06 0 0.88 0.06 0 
0.9 0.06 0 0.92 0.06 0 0.94 0.06 0 
0.96 0.06 0 0.98 0.06 0 1 0.06 0 
0 0.08 0 0.02 0.08 0 0.04 0.08 0 
0.06 0.08 0 0.08 0.08 0 0.1 0.08 0 
0.12 0.08 0 0.14 0.08 0 0.16 0.08 0 
0.18 0.08 0 0.2 0.08 0 0.22 0.08 0 
0.24 0.08 0 0.26 0.08 0 0.28 0.08 0 
0.3 0.08 0 0.32 0.08 0 0.34 0.08 0 
0.36 0.08 0 0.38 0.08 0 0.4 0.08 0 
0.42 0.08 0 0.44 0.08 0 0.46 0.08 0 
0.48 0.08 0 0.5 0.08 0 0.52 0.08 0 
0.54 0.08 0 0.56 0.08 0 0.58 0.08 0 
0.6 0.08 0 0.62 0.08 0 0.64 0.08 0 
0.66 0.08 0 0.68 0.08 0 0.7 0.08 0 
0.72 0.08 0 0.74 0.08 0 0.76 0.08 0 
0.78 0.08 0 0.8 0.08 0 0.82 0.08 0 
0.84 0.08 0 0.86 0.08 0 0.88 0.08 0 
0.9 0.08 0 0.92 0.08 0 0.94 0.08 0 
0.96 0.08 0 0.98 0.08 0 1 0.08 0 
0 0.1 0 0.02 0.1 0 0.04 0.1 0 
0.06 0.1 0 0.08 0.1 0 0.1 0.1 0 
0.12 0.1 0 0.14 0.1 0 0.16 0.1 0 
0.18 0.1 0 0.2 0.1 0 0.22 0.1 0 
0.24 0.1 0 0.26 0.1 0 0.28 0.1 0 
0.3 0.1 0 0.32 0.1 0 0.34 0.1 0 
0.36 0.1 0 0.38 0.1 0 0.4 0.1 0 
0.42 0.1 0 0.44 0.1 0 0.46 0.1 0 
0.48 0.1 0 0.5 0.1 0 0.52 0.1 0 
0.54 0.1 0 0.56 0.1 0 0.58 0.1 0 
0.6 0.1 0 0.62 0.1 0 0.64 0.1 0 
0.66 0.1 0 0.68 0.1 0 0.7 0.1 0 
0.72 0.1 0 0.74 0.1 0 0.76 0.1 0 
0.78 0.1 0 0.8 0.1 0 0.82 0.1 0 
0.84 0.1 0 0.86 0.1 0 0.88 0.1 0 
0.9 0.1 0 0.92 0.1 0 0.94 0.1 0 
0.96 0.1 0 0.98 0.1 0 1 0.1 0 
0 0.12 0 0.02 0.12 0 0.04 0.12 0 
0.06 0.12 0 0.08 0.12 0 0.1 0.12 0 
0.12 0.12 0 0.14 0.12 0 0.16 0.12 0 
0.18 0.12 0 0.2 0.12 0 0.22 0.12 0 
0.24 0.12 0 0.26 0.12 0 0.28 0.12 0 
0.3 0.12 0 0.32 0.12 0 0.34 0.12 0 
0.36 0.12 0 0.38 0.12 0 0.4 0.12 0 
0.42 0.12 0 0.44 0.12 0 0.46 0.12 0 
0.48 0.12 0 0.5 0.12 0 0.52 0.12 0 
0.54 0.12 0 0.56 0.12 0 0.58 0.12 0 
0.6 0.12 0 0.62 0.12 0 0.64 0.12 0 
0.66 0.12 0 0.68 0.12 0 0.7 0.12 0 
0.72 0.12 0 0.74 0.12 0 0.76 0.12 0 
0.78 0.12 0 0.8 0.12 0 0.82 0.12 0 
0.84 0.12 0 0.86 0.12 0 0.88 0.12 0 
0.9 0.12 0 0.92 0.12 0 0.94 0.12 0 
0.96 0.12 0 0.98 0.12 0 1 0.12 0 
0 0.14 0 0.02 0.14 0 0.04 0.14 0 
0.06 0.14 0 0.08 0.14 0 0.1 0.14 0 
0.12 0.14 0 0.14 0.14 0 0.16 0.14 0 
0.18 0.14 0 0.2 0.14 0 0.22 0.14 0 
0.24 0.14 0 0.26 0.14 0 0.28 0.14 0 
0.3 0.14 0 0.32 0.14 0 0.34 0.14 0 
0.36 0.14 0 0.38 0.14 0 0.4 0.14 0 
0.42 0.14 0 0.44 0.14 0 0.46 0.14 0 
0.48 0.14 0 0.5 0.14 0 0.52 0.14 0 
0.54 0.14 0 0.56 0.14 0 0.58 0.14 0 
0.6 0.14 0 0.62 0.14 0 0.64 0.14 0 
0.66 0.14 0 0.68 0.14 0 0.7 0.14 0 
0.72 0.14 0 0.74 0.14 0 0.76 0.14 0 
0.78 0.14 0 0.8 0.14 0 0.82 0.14 0 
0.84 0.14 0 0.86 0.14 0 0.88 0.14 0 
0.9 0.14 0 0.92 0.14 0 0.94 0.14 0 
0.96 0.14 0 0.98 0.14 0 1 0.14 0 
0 0.16 0 0.02 0.16 0 0.04 0.16 0 
0.06 0.16 0 0.08 0.16 0 0.1 0.16 0 
0.12 0.16 0 0.14 0.16 0 0.16 0.16 0 
0.18 0.16 0 0.2 0.16 0 0.22 0.16 0 
0.24 0.16 0 0.26 0.16 0 0.28 0.16 0 
0.3 0.16 0 0.32 0.16 0 0.34 0.16 0 
0.36 0.16 0 0.38 0.16 0 0.4 0.16 0 
0.42 0.16 0 0.44 0.16 0 0.46 0.16 0 
0.48 0.16 0 0.5 0.16 0 0.52 0.16 0 
0.54 0.16 0 0.56 0.16 0 0.58 0.16 0 
0.6 0.16 0 0.62 0.16 0 0.64 0.16 0 
0.66 0.16 0 0.68 0.16 0 0.7 0.16 0 
0.72 0.16 0 0.74 0.16 0 0.76 0.16 0 
0.78 0.16 0 0.8 0.16 0 0.82 0.16 0 
0.84 0.16 0 0.86 0.16 0 0.88 0.16 0 
0.9 0.16 0 0.92 0.16 0 0.94 0.16 0 
0.96 0.16 0 0.98 0.16 0 1 0.16 0 
0 0.18 0 0.02 0.18 0 0.04 0.18 0 
0.06 0.18 0 0.08 0.18 0 0.1 0.18 0 
0.12 0.18 0 0.14 0.18 0 0.16 0.18 0 
0.18 0.18 0 0.2 0.18 0 0.22 0.18 0 
0.24 0.18 0 0.26 0.18 0 0.28 0.18 0 
0.3 0.18 0 0.32 0.18 0 0.34 0.18 0 
0.36 0.18 0 0.38 0.18 0 0.4 0.18 0 
0.42 0.18 0 0.44 0.18 0 0.46 0.18 0 
0.48 0.18 0 0.5 0.18 0 0.52 0.18 0 
0.54 0.18 0 0.56 0.18 0 0.58 0.18 0 
0.6 0.18 0 0.62 0.18 0 0.64 0.18 0 
0.66 0.18 0 0.68 0.18 0 0.7 0.18 0 
0.72 0.18 0 0.74 0.18 0 0.76 0.18 0 
0.78 0.18 0 0.8 0.18 0 0.82 0.18 0 
0.84 0.18 0 0.86 0.18 0 0.88 0.18 0 
0.9 0.18 0 0.92 0.18 0 0.94 0.18 0 
0.96 0.18 0 0.98 0.18 0 1 0.18 0 
0 0.2 0 0.02 0.2 0 0.04 0.2 0 
0.06 0.2 0 0.08 0.2 0 0.1 0.2 0 
0.12 0.2 0 0.14 0.2 0 0.16 0.2 0 
0.18 0.2 0 0.2 0.2 0 0.22 0.2 0 
0.24 0.2 0 0.26 0.2 0 0.28 0.2 0 
0.3 0.2 0 0.32 0.2 0 0.34 0.2 0 
0.36 0.2 0 0.38 0.2 0 0.4 0.2 0 
0.42 0.2 0 0.44 0.2 0 0.46 0.2 0 
0.48 0.2 0 0.5 0.2 0 0.52 0.2 0 
0.54 0.2 0 0.56 0.2 0 0.58 0.2 0 
0.6 0.2 0 0.62 0.2 0 0.64 0.2 0 
0.66 0.2 0 0.68 0.2 0 0.7 0.2 0 
0.72 0.2 0 0.74 0.2 0 0.76 0.2 0 
0.78 0.2 0 0.8 0.2 0 0.82 0.2 0 
0.84 0.2 0 0.86 0.2 0 0.88 0.2 0 
0.9 0.2 0 0.92 0.2 0 0.94 0.2 0 
0.96 0.2 0 0.98 0.2 0 1 0.2 0 
0 0.22 0 0.02 0.22 0 0.04 0.22 0 
0.06 0.22 0 0.08 0.22 0 0.1 0.22 0 
0.12 0.22 0 0.14 0.22 0 0.16 0.22 0 
0.18 0.22 0 0.2 0.22 0 0.22 0.22 0 
0.24 0.22 0 0.26 0.22 0 0.28 0.22 0 
0.3 0.22 0 0.32 0.22 0 0.34 0.22 0 
0.36 0.22 0 0.38 0.22 0 0.4 0.22 0 
0.42 0.22 0 0.44 0.22 0 0.46 0.22 0 
0.48 0.22 0 0.5 0.22 0 0.52 0.22 0 
0.54 0.22 0 0.56 0.22 0 0.58 0.22 0 
0.6 0.22 0 0.62 0.22 0 0.64 0.22 0 
0.66 0.22 0 0.68 0.22 0 0.7 0.22 0 
0.72 0.22 0 0.74 0.22 0 0.76 0.22 0 
0.78 0.22 0 0.8 0.22 0 0.82 0.22 0 
0.84 0.22 0 0.86 0.22 0 0.88 0.22 0 
0.9 0.22 0 0.92 0.22 0 0.94 0.22 0 
0.96 0.22 0 0.98 0.22 0 1 0.22 0 
0 0.24 0 0.02 0.24 0 0.04 0.24 0 
0.06 0.24 0 0.08 0.24 0 0.1 0.24 0 
0.12 0.24 0 0.14 0.24 0 0.16 0.24 0 
0.18 0.24 0 0.2 0.24 0 0.22 0.24 0 
0.24 0.24 0 0.26 0.24 0 0.28 0.24 0 
0.3 0.24 0 0.32 0.24 0 0.34 0.24 0 
0.36 0.24 0 0.38 0.24 0 0.4 0.24 0 
0.42 0.24 0 0.44 0.24 0 0.46 0.24 0 
0.48 0.24 0 0.5 0.24 0 0.52 0.24 0 
0.54 0.24 0 0.56 0.24 0 0.58 0.24 0 
0.6 0.24 0 0.62 0.24 0 0.64 0.24 0 
0.66 0.24 0 0.68 0.24 0 0.7 0.24 0 
0.72 0.24 0 0.74 0.24 0 0.76 0.24 0 
0.78 0.24 0 0.8 0.24 0 0.82 0.24 0 
0.84 0.24 0 0.86 0.24 0 0.88 0.24 0 
0.9 0.24 0 0.92 0.24 0 0.94 0.24 0 
0.96 0.24 0 0.98 0.24 0 1 0.24 0 
0 0.26 0 0.02 0.26 0 0.04 0.26 0 
0.06 0.26 0 0.08 0.26 0 0.1 0.26 0 
0.12 0.26 0 0.14 0.26 0 0.16 0.26 0 
0.18 0.26 0 0.2 0.26 0 0.22 0.26 0 
0.24 0.26 0 0.26 0.26 0 0.28 0.26 0 
0.3 0.26 0 0.32 0.26 0 0.34 0.26 0 
0.36 0.26 0 0.38 0.26 0 0.4 0.26 0 
0.42 0.26 0 0.44 0.26 0 0.46 0.26 0 
0.48 0.26 0 0.5 0.26 0 0.52 0.26 0 
0.54 0.26 0 0.56 0.26 0 0.58 0.26 0 
0.6 0.26 0 0.62 0.26 0 0.64 0.26 0 
0.66 0.26 0 0.68 0.26 0 0.7 0.26 0 
0.72 0.26 0 0.74 0.26 0 0.76 0.26 0 
0.78 0.26 0 0.8 0.26 0 0.82 0.26 0 
0.84 0.26 0 0.86 0.26 0 0.88 0.26 0 
0.9 0.26 0 0.92 0.26 0 0.94 0.26 0 
0.96 0.26 0 0.98 0.26 0 1 0.26 0 
0 0.28 0 0.02 0.28 0 0.04 0.28 0 
0.06 0.28 0 0.08 0.28 0 0.1 0.28 0 
0.12 0.28 0 0.14 0.28 0 0.16 0.28 0 
0.18 0.28 0 0.2 0.28 0 0.22 0.28 0 
0.24 0.28 0 0.26 0.28 0 0.28 0.28 0 
0.3 0.28 0 0.32 0.28 0 0.34 0.28 0 
0.36 0.28 0 0.38 0.28 0 0.4 0.28 0 
0.42 0.28 0 0.44 0.28 0 0.46 0.28 0 
0.48 0.28 0 0.5 0.28 0 0.52 0.28 0 
0.54 0.28 0 0.56 0.28 0 0.58 0.28 0 
0.6 0.28 0 0.62 0.28 0 0.64 0.28 0 
0.66 0.28 0 0.68 0.28 0 0.7 0.28 0 
0.72 0.28 0 0.74 0.28 0 0.76 0.28 0 
0.78 0.28 0 0.8 0.28 0 0.82 0.28 0 
0.84 0.28 0 0.86 0.28 0 0.88 0.28 0 
0.9 0.28 0 0.92 0.28 0 0.94 0.28 0 
0.96 0.28 0 0.98 0.28 0 1 0.28 0 
0 0.3 0 0.02 0.3 0 0.04 0.3 0 
0.06 0.3 0 0.08 0.3 0 0.1 0.3 0 
0.12 0.3 0 0.14 0.3 0 0.16 0.3 0 
0.18 0.3 0 0.2 0.3 0 0.22 0.3 0 
0.24 0.3 0 0.26 0.3 0 0.28 0.3 0 
0.3 0.3 0 0.32 0.3 0 0.34 0.3 0 
0.36 0.3 0 0.38 0.3 0 0.4 0.3 0 
0.42 0.3 0 0.44 0.3 0 0.46 0.3 0 
0.48 0.3 0 0.5 0.3 0 0.52 0.3 0 
0.54 0.3 0 0.56 0.3 0 0.58 0.3 0 
0.6 0.3 0 0.62 0.3 0 0.64 0.3 0 
0.66 0.3 0 0.68 0.3 0 0.7 0.3 0 
0.72 0.3 0 0.74 0.3 0 0.76 0.3 0 
0.78 0.3 0 0.8 0.3 0 0.82 0.3 0 
0.84 0.3 0 0.86 0.3 0 0.88 0.3 0 
0.9 0.3 0 0.92 0.3 0 0.94 0.3 0 
0.96 0.3 0 0.98 0.3 0 1 0.3 0 
0 0.32 0 0.02 0.32 0 0.04 0.32 0 
0.06 0.32 0 0.08 0.32 0 0.1 0.32 0 
0.12 0.32 0 0.14 0.32 0 0.16 0.32 0 
0.18 0.32 0 0.2 0.32 0 0.22 0.32 0 
0.24 0.32 0 0.26 0.32 0 0.28 0.32 0 
0.3 0.32 0 0.32 0.32 0 0.34 0.32 0 
0.36 0.32 0 0.38 0.32 0 0.4 0.32 0 
0.42 0.32 0 0.44 0.32 0 0.46 0.32 0 
0.48 0.32 0 0.5 0.32 0 0.52 0.32 0 
0.54 0.32 0 0.56 0.32 0 0.58 0.32 0 
[...]
CELL_DATA 2500
FIELD FieldData 2
pressure 1 2500 double
-0.0056562965884 -0.0056447418225 -0.0056674854616 -0.0057301354349 -0.0058271035603 -0.0059509069607 -0.0060964651503 -0.0062617081464 -0.0064470958153 
-0.0066540419259 -0.0068856841803 -0.0071442827847 -0.0074295479634 -0.0077418575478 -0.0080768486218 -0.0084275211979 -0.0087836280545 -0.009131865013 
-0.0094564181331 -0.0097395490296 -0.0099622590761 -0.010104931285 -0.010148010752 -0.010072890742 -0.009862979402 -0.0095048869446 -0.0089897219688 
-0.0083144723867 -0.0074834832815 -0.0065100919555 -0.0054218034869 -0.0042782806573 -0.0031227145572 -0.0020105165663 -0.0010044666684 -0.00016972090153 
0.00043308451446 0.00075669856333 0.0007773394906 0.00050447561125 1.6012460279e-05 -0.00060652748713 -0.0012642790668 -0.0018616886561 -0.0023339610535 
-0.0026672347304 -0.002873605664 -0.0029738233667 -0.0029895370397 -0.0029486722045 -0.0056686541357 -0.0056560346997 -0.0056797754236 -0.0057402922036 
-0.0058324385748 -0.0059487978902 -0.0060844645498 -0.0062369047022 -0.0064075407954 -0.0065977611317 -0.0068131361737 -0.0070574331548 -0.0073304213674 
-0.0076317690301 -0.0079577896351 -0.008301781789 -0.0086541226283 -0.009002404143 -0.0093316362938 -0.0096245915011 -0.0098622354604 -0.01002437445 
-0.010090589046 -0.01004133147 -0.0098591234469 -0.0095298149765 -0.009043789628 -0.0083970516636 -0.0075921738928 -0.00663953544 -0.0056038644079 
-0.0044977745094 -0.0033736112975 -0.0022886178949 -0.0013053724865 -0.00048805107141 0.00010409161749 0.00042551389533 0.00045474916262 0.00020498980902 
-0.00026825654748 -0.00083371005519 -0.0014339193571 -0.0019730642943 -0.0023894815818 -0.0026755522254 -0.0028490460916 -0.0029342937397 -0.0029514647181 
-0.0029095510782 -0.0056466346317 -0.0056330312147 -0.0056610227458 -0.0057263208023 -0.0058195950523 -0.0059308458421 -0.0060566148618 -0.0061926868264 
-0.0063465319453 -0.0065229524993 -0.0067272932172 -0.0069642657006 -0.0072354047265 -0.0075400255437 -0.0078746483802 -0.0082329145099 -0.0086055610779 
-0.0089802983254 -0.0093418309255 -0.0096720493897 -0.0099505643081 -0.01015564685 -0.010265393524 -0.010258993211 -0.010118012691 -0.0098275687174 
-0.0093772944515 -0.0087619529269 -0.0079809324154 -0.0070846094092 -0.0060761868538 -0.00499261022 -0.0038832023166 -0.002804807864 -0.0018197007668 
-0.00099167580617 -0.00037980466272 -2.9917178218e-05 3.5650788726e-05 -0.00017133156415 -0.00059693301388 -0.0011447051096 -0.0017035739896 -0.0022097414082 
-0.0025852373268 -0.0028180395084 -0.002946276552 -0.002999762763 -0.0030004235305 -0.0029488855876 -0.005579552234 -0.0055733529307 -0.0056126246596 
-0.0056878005069 -0.0057851784589 -0.005892971502 -0.0060084297482 -0.0061333819954 -0.0062774099826 -0.0064491356208 -0.0066560532446 -0.0069033134397 
-0.0071931286359 -0.007524826065 -0.0078948393657 -0.0082965822421 -0.0087200912707 -0.0091518095252 -0.0095745983537 -0.0099681732709 -0.010310023385 
-0.010576614891 -0.010744735457 -0.010792823711 -0.010702152324 -0.010457834083 -0.01004972675 -0.0094733880652 -0.0087377648968 -0.0078769788059 
-0.0068938021663 -0.0058269276487 -0.0047236909819 -0.0036392103857 -0.0026342569247 -0.0017714917239 -0.0011096357865 -0.00069548215581 -0.00055422116988 
-0.0006795123382 -0.0010263427584 -0.0015118951493 -0.0020306553855 -0.0024983518504 -0.0028547701604 -0.0030516216941 -0.0031403109697 -0.0031614169115 
-0.003143386452 -0.0030900908736 -0.005464071891 -0.0054748868228 -0.0055314837327 -0.005618713495 -0.0057208095466 -0.0058283879746 -0.0059409280357 
-0.0060663608132 -0.0062166786009 -0.0064034806266 -0.0066355664956 -0.0069186165104 -0.007254889599 -0.0076433148058 -0.0080795223588 -0.0085554242183 
-0.0090589085328 -0.0095737525159 -0.010079989654 -0.010554817399 -0.010973800426 -0.011312235989 -0.011546502164 -0.011655217142 -0.01162021216 
-0.011427414084 -0.011067658746 -0.010537251761 -0.0098575993973 -0.0090276684068 -0.0080696800577 -0.0070179071585 -0.0059161793706 -0.0048163698166 
-0.0037763189825 -0.0028564374634 -0.0021144962963 -0.0015984492195 -0.0013376780799 -0.0013339842012 -0.0015550074922 -0.0019341484699 -0.0023809226531 
-0.0028017316836 -0.0031146867178 -0.0033109459793 -0.0033806627293 -0.0033855005966 -0.0033596102862 -0.0033145533041 -0.0053010724614 -0.0053364111212 
-0.0054124086257 -0.0055114447432 -0.0056229851321 -0.0057378044581 -0.0058616295513 -0.0060065719097 -0.0061868894477 -0.006415134224 -0.0067006841893 
-0.0070490383114 -0.0074617967113 -0.0079367511311 -0.0084675059852 -0.0090432382481 -0.0096486282031 -0.010264206215 -0.010867258839 -0.011433030276 
-0.011936073775 -0.012351558497 -0.012656368867 -0.012830023982 -0.012855536875 -0.012720279276 -0.012416865914 -0.011944177883 -0.01131456764 
-0.010523915145 -0.0095953219335 -0.008560124156 -0.007458084844 -0.0063366693437 -0.0052494949533 -0.0042535763175 -0.0034049715383 -0.0027526498682 
-0.0023308799164 -0.0021512083721 -0.0021961065753 -0.0024172148113 -0.0027408465377 -0.0030812662569 -0.0033601470536 -0.0035361548418 -0.0036192872219 
-0.0036350625494 -0.0036188750966 -0.0035903694143 -0.0050962135167 -0.0051604482899 -0.0052556315865 -0.0053705017229 -0.0054956574658 -0.0056312704673 
-0.005786561451 -0.0059757276979 -0.0062133128652 -0.0065118184056 -0.0068800166911 -0.0073224317871 -0.0078393006792 -0.0084261127549 -0.0090734538037 
-0.0097670227662 -0.01048802869 -0.011214136252 -0.011920671567 -0.012581957978 -0.013172552984 -0.013668258189 -0.014046970815 -0.014289475056 
-0.014380231463 -0.014308200226 -0.014067823902 -0.01366024812 -0.013083453571 -0.012337792538 -0.011443602624 -0.010428388637 -0.0093270554432 
-0.0081816625564 -0.0070404825988 -0.0059560243232 -0.0049816807498 -0.0041668262197 -0.0035505319561 -0.0031546315703 -0.0029776045271 -0.0029913516695 
-0.0031429978226 -0.0033632591898 -0.0035824530232 -0.0037538844092 -0.0038550022851 -0.0038909080707 -0.0039007273823 -0.0038942535678 -0.0048658839468 
-0.004961048845 -0.0050741006213 -0.0052063397958 -0.0053571302196 -0.005531651262 -0.0057412571767 -0.0059999052108 -0.0063213884288 -0.006716912187 
-0.0071937667523 -0.0077548318768 -0.0083978142668 -0.0091150390875 -0.0098935015221 -0.010715318928 -0.011558770717 -0.012399539986 -0.013212033331 
-0.013970557838 -0.014650261093 -0.015227915935 -0.015682636263 -0.015996584289 -0.016155684562 -0.016150437981 -0.015976794621 -0.015637084718 
-0.015117516326 -0.014421892836 -0.013567438511 -0.012577287053 -0.011480883104 -0.010314121947 -0.0091189757827 -0.0079423270424 -0.0068337227315 
-0.0058418379228 -0.0050096611691 -0.0043688219439 -0.003933975132 -0.0036986241921 -0.0036339972595 -0.0036924910094 -0.0038167404455 -0.003953485376 
-0.0040657069749 -0.0041537988666 -0.0042015408438 -0.0042197108466 -0.0046371216597 -0.0047599630692 -0.0048910397267 -0.0050484622989 -0.0052389971707 
-0.005471041891 -0.0057558136787 -0.0061060801165 -0.006533766994 -0.0070479944717 -0.0076539923463 -0.0083517977787 -0.0091357653655 -0.0099945112977 
-0.010911341497 -0.01186537276 -0.012832832522 -0.013788388074 -0.014706284205 -0.01556124999 -0.016329246042 -0.01698812543 -0.017518298853 
-0.017903370374 -0.018130807851 -0.018192574154 -0.018085714381 -0.017813071063 -0.017353013873 -0.016711237927 -0.015901793426 -0.014943273671 
-0.013859362227 -0.012679263117 -0.011437849623 -0.010175306548 -0.0089360021261 -0.007766363885 -0.0067116623938 -0.0058118194333 -0.0050966680979 
-0.0045814239937 -0.0042633450114 -0.0041206550682 -0.0041148172691 -0.0041973005123 -0.0043219609503 -0.0044478238755 -0.0045323583945 -0.0045754481695 
-0.0044452922794 -0.0045905217878 -0.0047440043529 -0.0049357810408 -0.0051792520497 -0.005483920382 -0.0058600284375 -0.0063183363957 -0.0068682741994 
-0.0075164933391 -0.0082650058402 -0.0091101955467 -0.01004248205 -0.011046589825 -0.012102672831 -0.013187634794 -0.014276489628 -0.015343492253 
-0.0163630397 -0.017310418022 -0.018162451033 -0.018898182087 -0.01949946887 -0.019951559423 -0.020243550927 -0.020368720009 -0.02032493406 
-0.020115099668 -0.019714134075 -0.019128349344 -0.018368770948 -0.017449536027 -0.016388515193 -0.015207970519 -0.01393513686 -0.012602570191 
-0.011248076905 -0.0099140049401 -0.008645683246 -0.0074888953373 -0.0064864234182 -0.0056738276535 -0.0050747332963 -0.0046959902055 -0.0045233220293 
-0.0045189749005 -0.0046248674039 -0.0047731278633 -0.0049064612911 -0.0049773877705 -0.0043312750088 -0.0044968930947 -0.0046753506911 -0.0049088106758 
-0.0052143484253 -0.0056014959611 -0.0060789941764 -0.0066551483251 -0.007336756034 -0.0081269980714 -0.0090238917691 -0.010019571001 -0.011100245381 
-0.01224721045 -0.01343812424 -0.014648375988 -0.015852217755 -0.017023691604 -0.018137406295 -0.019169209023 -0.020096947003 -0.020901070014 
-0.021565168245 -0.022076337074 -0.022425319203 -0.022606678736 -0.022618928801 -0.022464739088 -0.022119843394 -0.021590422355 -0.020884718238 
-0.020012690116 -0.018986638591 -0.017821963197 -0.016538032597 -0.015159118009 -0.013715250917 -0.012242797282 -0.010784521069 -0.0093888778264 
-0.0081082267276 -0.0069955928492 -0.0060995220151 -0.0054565203808 -0.0050809077411 -0.0049534810835 -0.0050148929505 -0.0051756765771 -0.0053494381935 
-0.0054473576933 -0.004334798636 -0.0045171525606 -0.0047225424561 -0.0050016655156 -0.0053735829276 -0.0058474780398 -0.0064302729473 -0.0071279135066 
-0.0079438259874 -0.0088770007797 -0.0099209302297 -0.011063179559 -0.012286151136 -0.013568254126 -0.01488523339 -0.016211274718 -0.017519967341 
-0.018785135328 -0.019981551862 -0.021085836452 -0.02207710934 -0.022937550268 -0.023652752441 -0.024211750028 -0.024607048596 -0.024834505187 
-0.024893230386 -0.024785647697 -0.024491745384 -0.024017302829 -0.023368110651 -0.022550428585 -0.021571500932 -0.020440295426 -0.019168531933 
-0.017771987163 -0.016272026176 -0.014697270297 -0.013085192185 -0.011483274141 -0.0099491909312 -0.0085492045851 -0.0073536080999 -0.0064277835435 
-0.0058176909435 -0.0055305300938 -0.0055172276011 -0.0056743757304 -0.005877308574 -0.0060024415433 -0.0044846237281 -0.0046801606584 -0.0049125126313 
-0.0052376524278 -0.0056759253831 -0.0062358428249 -0.0069227367854 -0.0077397868345 -0.0086863893368 -0.0097569580667 -0.010940169079 -0.012219395001 
-0.013573729633 -0.014979210272 -0.016409874963 -0.017838732605 -0.019238655657 -0.020583143946 -0.021847405582 -0.02300908399 -0.024048891405 
-0.024951039667 -0.025703219849 -0.026296585694 -0.026725491933 -0.026987173852 -0.027081526036 -0.027010829316 -0.026761505512 -0.026339028582 
-0.025747136784 -0.02498901924 -0.024067654663 -0.022986437375 -0.021750141104 -0.020366327075 -0.018847301091 -0.017212606617 -0.015491915143 
-0.013727987631 -0.011979035842 -0.010319315396 -0.0088361733031 -0.0076211823605 -0.0067529598595 -0.0062710708773 -0.0061467004954 -0.006270086824 
-0.0064823037385 -0.006651406686 -0.0047974893491 -0.0050020612431 -0.0052591398409 -0.0056278029881 -0.0061289260475 -0.0067704572881 -0.0075560258736 
-0.0084854328541 -0.0095538224324 -0.010750832273 -0.012060695841 -0.013463143822 -0.01493445859 -0.016448473188 -0.01797750998 -0.019493326471 
-0.020967920617 -0.022374814391 -0.023689874474 -0.024892060036 -0.02596400982 -0.026892016516 -0.027666059504 -0.028279502783 -0.028728657007 
-0.029012389639 -0.029131533514 -0.029088379807 -0.028876668321 -0.028501739593 -0.02796572658 -0.027269526451 -0.026412928039 -0.025394946323 
-0.024214536632 -0.022871903725 -0.02137055285 -0.019720238495 -0.017940855358 -0.016067020339 -0.01415264619 -0.012274152038 -0.010530044362 
-0.0090336182943 -0.0078950422778 -0.0071904835731 -0.0069222403118 -0.0069904421167 -0.0072184534295 -0.0074186219915 -0.0052768251429 -0.0054854481157 
-0.0057635079928 -0.006171185029 -0.0067294096616 -0.0074455236634 -0.0083208417282 -0.0093516510899 -0.010528768732 -0.011837425444 -0.013258094373 
-0.014767382767 -0.016338968119 -0.017944476773 -0.019554460732 -0.021139245045 -0.02267037796 -0.024121592518 -0.02546968489 -0.026695320037 
-0.027783024913 -0.028721358504 -0.029502657727 -0.030122562948 -0.030579577782 -0.030874273928 -0.031008533304 -0.030984728658 -0.030803812252 
-0.030470914402 -0.029987084294 -0.029351844606 -0.028562975513 -0.0276165149 -0.02650713707 -0.025229080556 -0.023777972621 -0.02215388769 
-0.020365821708 -0.018437529656 -0.016414181652 -0.014368435664 -0.012403318865 -0.010647902303 -0.0092406759984 -0.0082962097797 -0.0078562881833 
-0.0078436204746 -0.0080682322281 -0.0083037042923 -0.0059134095612 -0.0061209085747 -0.0064154424542 -0.006856580606 -0.0074649381316 -0.0082465396146 
-0.0092001599214 -0.010318594596 -0.011588671694 -0.012992040613 -0.014505982774 -0.016104288826 -0.017758081517 -0.019436777313 -0.021109000986 
-0.022744125324 -0.024313441575 -0.025791155951 -0.027155454568 -0.028388558188 -0.029477086166 -0.030411927192 -0.031187778572 -0.031802745731 
-0.032257447385 -0.032554178097 -0.032696005058 -0.032684687049 -0.032528520914 -0.032231482739 -0.03179422616 -0.03121575901 -0.030493030203 
-0.029620627236 -0.02859065764 -0.02739317878 -0.026017561436 -0.02445520625 -0.022704094134 -0.020775426479 -0.018702042323 -0.016547341244 
-0.014411983288 -0.012433749092 -0.010774149474 -0.0095850572081 -0.0089529941419 -0.0088349493681 -0.0090392521647 -0.0093070227855 -0.0066878317777 
-0.0068894867817 -0.0071958639189 -0.0076647112459 -0.0083153708717 -0.0091520111609 -0.010170875434 -0.011361532783 -0.012707707376 -0.014188110683 
-0.015777259069 -0.017446269975 -0.019163764809 -0.020896878709 -0.022612805304 -0.02428023216 -0.025870444035 -0.027358646932 -0.02872417454 
-0.029951050747 -0.03102806811 -0.03194837666 -0.032709206022 -0.033310909242 -0.033756090753 -0.034048633722 -0.034192695998 -0.034189191456 
-0.034052596697 -0.033785063587 -0.03338742224 -0.032858920798 -0.032196732031 -0.031395323804 -0.030445970734 -0.029336619499 -0.028052494543 
-0.02657811994 -0.024901460367 -0.023020747235 -0.020954109202 -0.018751088192 -0.016503387081 -0.0143498296 -0.012467937516 -0.011043018267 
-0.010208378047 -0.0099649712539 -0.010132642622 -0.010424912353 -0.0075736544243 -0.0077654905142 -0.0080795217118 -0.0085702990851 -0.0092548923366 
-0.010135431119 -0.011205754946 -0.012452994514 -0.01385849274 -0.015398540882 -0.017045138095 -0.018766827306 -0.020529795441 -0.022299368332 
-0.024041709709 -0.025725061781 -0.027321275214 -0.02880629064 -0.030160857715 -0.031370919094 -0.03242730359 -0.033325640156 -0.034065395176 
-0.034648967944 -0.035080622683 -0.035365354399 -0.035508103633 -0.035510892511 -0.035389159586 -0.035144931327 -0.034779395625 -0.034292493211 
-0.033682293897 -0.03294426395 -0.032070419335 -0.03104856819 -0.029862144637 -0.028491258984 -0.026915872924 -0.025122142972 -0.023112580585 
-0.020919616518 -0.018620258625 -0.01634670339 -0.014284331026 -0.012645672038 -0.011609739682 -0.011228523812 -0.011347439136 -0.011662441929 
-0.0085403699108 -0.0087194179396 -0.0090373635381 -0.0095441801911 -0.01025417777 -0.011167354903 -0.01227566834 -0.013564557701 -0.015013536864 
-0.016596792778 -0.018283945311 -0.020041175217 -0.021832660855 -0.023622467491 -0.02537599356 -0.027061613414 -0.028651550765 -0.030122702367 
-0.031457406326 -0.032643335649 -0.03367364413 -0.034546112083 -0.035262223345 -0.035826044386 -0.036242947743 -0.036518783864 -0.036658942785 
-0.036666923353 -0.036556607611 -0.0363302696 -0.035989602554 -0.035535433949 -0.034967193241 -0.034282076473 -0.033473955707 -0.032532232099 
-0.031440870899 -0.030178288253 -0.028719212329 -0.027039885446 -0.025127878448 -0.02299688782 -0.020704826253 -0.018370227154 -0.016177706253 
-0.014358979732 -0.013134596872 -0.012610924444 -0.012670361074 -0.01299879241 -0.0095561581414 -0.0097203217689 -0.010038468283 -0.010555413329 
-0.011282424604 -0.012217518335 -0.013351402717 -0.014668342254 -0.016146330078 -0.017757622107 -0.019469764101 -0.021246958752 -0.023052034356 
-0.024848149756 -0.026600463668 -0.028277450654 -0.029851821205 -0.031301674969 -0.032610730016 -0.033768712431 -0.034770780085 -0.035616636151 
-0.036309417931 -0.036854280794 -0.037257443645 -0.037525080367 -0.0376627467 -0.037675412942 -0.037574011793 -0.037361096889 -0.037038875248 
-0.036609119053 -0.036072724677 -0.035428925192 -0.034674184356 -0.033800721991 -0.032794916795 -0.031636148255 -0.030297096994 -0.028747196928 
-0.026961222419 -0.024934304843 -0.022702596869 -0.02036514225 -0.018097375823 -0.016140964193 -0.014751068008 -0.014087994204 -0.014080132702 
-0.01441345466 -0.010590111426 -0.010737436005 -0.011051875172 -0.011573085639 -0.012309190213 -0.013256579836 -0.01440509273 -0.01573802984 
-0.017232035082 -0.018857750146 -0.0205809993 -0.022364711257 -0.024170857727 -0.025962128658 -0.027703617565 -0.029363905629 -0.030916490033 
-0.032340498154 -0.033621310645 -0.034750446073 -0.035724816616 -0.036545732701 -0.037217413498 -0.037745878765 -0.038137602996 -0.038398782284 
-0.038534913778 -0.038552005314 -0.038457688788 -0.038254712184 -0.037945663614 -0.037533129788 -0.037019388077 -0.036405753392 -0.035691486852 
-0.034872260002 -0.033938213733 -0.032871890783 -0.031647002247 -0.030229812296 -0.02858565451 -0.026692986036 -0.024565461553 -0.022278493789 
-0.019990816708 -0.017944386996 -0.016419981547 -0.015627992984 -0.015548798215 -0.015879389501 -0.011613759493 -0.011741384527 -0.012047938507 
-0.012567767241 -0.013305955679 -0.014257404589 -0.015411119245 -0.016749508145 -0.018248120017 -0.019876292805 -0.021598816319 -0.02337797397 
-0.025175251258 -0.026953222502 -0.028676888294 -0.030315221959 -0.03184244305 -0.033238883368 -0.034491434231 -0.035593118627 -0.036542328276 
-0.037341427132 -0.03799552952 -0.038510943961 -0.038894162279 -0.039151185879 -0.039286944793 -0.039308126894 -0.039219595805 -0.039023910139 
-0.038723896198 -0.038322789369 -0.037824042703 -0.037230806786 -0.036545012455 -0.035765936793 -0.034888117587 -0.033898745018 -0.032775173246 
-0.031484147134 -0.029985625304 -0.028244724904 -0.026253808476 -0.024062518628 -0.021806861527 -0.019719804135 -0.018097518206 -0.017193741295 
-0.017043408891 -0.017365029938 -0.012602925552 -0.012704004651 -0.012999185483 -0.013512747956 -0.014247197163 -0.015195821268 -0.016346682506 
-0.017681406364 -0.019174684151 -0.020795164582 -0.022507317475 -0.024273144317 -0.026054096076 -0.027812670831 -0.029513981534 -0.031127500578 
-0.032628231324 -0.033997671228 -0.035223912012 -0.036301211206 -0.037228917946 -0.038010267173 -0.038650727821 -0.039156698922 -0.039534519683 
-0.039789574056 -0.039926339114 -0.039950533751 -0.039866991055 -0.039676658478 -0.039382551492 -0.038988396305 -0.038498586326 -0.037917796707 
-0.03725026842 -0.036498587331 -0.035661749072 -0.034732334379 -0.033693140002 -0.032514540463 -0.031155362394 -0.029571706549 -0.027737550402 
-0.025676721755 -0.023498419743 -0.021418471795 -0.019737880484 -0.01874479282 -0.018527812443 -0.018835980744 -0.013530401922 -0.013608273397 
-0.013881606511 -0.014384975013 -0.015111064526 -0.016051090442 -0.01719221579 -0.018515344122 -0.019994798681 -0.021599286858 -0.023293363577 
-0.025039223532 -0.02679845275 -0.028533593082 -0.030210129206 -0.031798053501 -0.0332731835 -0.034617915353 -0.03582123477 -0.036878158935 
-0.037788775311 -0.038556682726 -0.039187495487 -0.039687552667 -0.040062611548 -0.040317588532 -0.040456434801 -0.040482567621 -0.040403413938 
-0.040216887556 -0.039926222269 -0.039535582817 -0.039050083452 -0.038475564343 -0.037818100095 -0.0370830867 -0.036273607402 -0.035387667589 
-0.034414424233 -0.033330197876 -0.032096529697 -0.030665228736 -0.028996074396 -0.027088995393 -0.025024482226 -0.022994793983 -0.021295701233 
-0.020239450341 -0.019964253183 -0.020256398826 -0.014372481555 -0.014437793897 -0.014684016631 -0.015165486422 -0.015879846004 -0.016806176155 