# vtk DataFile Version 4.1
vtk output
ASCII
DATASET STRUCTURED_GRID
DIMENSIONS 51 51 1
POINTS 2601 float
0 0 0 0.02 0 0 0.04 0 0 
0.06 0 0 0.08 0 0 0.1 0 0 
0.12 0 0 0.14 0 0 0.16 0 0 
0.18 0 0 0.2 0 0 0.22 0 0 
0.24 0 0 0.26 0 0 0.28 0 0 
0.3 0 0 0.32 0 0 0.34 0 0 
0.36 0 0 0.38 0 0 0.4 0 0 
0.42 0 0 0.44 0 0 0.46 0 0 
0.48 0 0 0.5 0 0 0.52 0 0 
0.54 0 0 0.56 0 0 0.58 0 0 
0.6 0 0 0.62 0 0 0.64 0 0 
0.66 0 0 0.68 0 0 0.7 0 0 
0.72 0 0 0.74 0 0 0.76 0 0 
0.78 0 0 0.8 0 0 0.82 0 0 
0.84 0 0 0.86 0 0 0.88 0 0 
0.9 0 0 0.92 0 0 0.94 0 0 
0.96 0 0 0.98 0 0 1 0 0 
0 0.02 0 0.02 0.02 0 0.04 0.02 0 
0.06 0.02 0 0.08 0.02 0 0.1 0.02 0 
0.12 0.02 0 0.14 0.02 0 0.16 0.02 0 
0.18 0.02 0 0.2 0.02 0 0.22 0.02 0 
0.24 0.02 0 0.26 0.02 0 0.28 0.02 0 
0.3 0.02 0 0.32 0.02 0 0.34 0.02 0 
0.36 0.02 0 0.38 0.02 0 0.4 0.02 0 
0.42 0.02 0 0.44 0.02 0 0.46 0.02 0 
0.48 0.02 0 0.5 0.02 0 0.52 0.02 0 
0.54 0.02 0 0.56 0.02 0 0.58 0.02 0 
0.6 0.02 0 0.62 0.02 0 0.64 0.02 0 
0.66 0.02 0 0.68 0.02 0 0.7 0.02 0 
0.72 0.02 0 0.74 0.02 0 0.76 0.02 0 
0.78 0.02 0 0.8 0.02 0 0.82 0.02 0 
0.84 0.02 0 0.86 0.02 0 0.88 0.02 0 
0.9 0.02 0 0.92 0.02 0 0.94 0.02 0 
0.96 0.02 0 0.98 0.02 0 1 0.02 0 
0 0.04 0 0.02 0.04 0 0.04 0.04 0 
0.06 0.04 0 0.08 0.04 0 0.1 0.04 0 
0.12 0.04 0 0.14 0.04 0 0.16 0.04 0 
0.18 0.04 0 0.2 0.04 0 0.22 0.04 0 
0.24 0.04 0 0.26 0.04 0 0.28 0.04 0 
0.3 0.04 0 0.32 0.04 0 0.34 0.04 0 
0.36 0.04 0 0.38 0.04 0 0.4 0.04 0 
0.42 0.04 0 0.44 0.04 0 0.46 0.04 0 
0.48 0.04 0 0.5 0.04 0 0.52 0.04 0 
0.54 0.04 0 0.56 0.04 0 0.58 0.04 0 
0.6 0.04 0 0.62 0.04 0 0.64 0.04 0 
0.66 0.04 0 0.68 0.04 0 0.7 0.04 0 
0.72 0.04 0 0.74 0.04 0 0.76 0.04 0 
0.78 0.04 0 0.8 0.04 0 0.82 0.04 0 
0.84 0.04 0 0.86 0.04 0 0.88 0.04 0 
0.9 0.04 0 0.92 0.04 0 0.94 0.04 0 
0.96 0.04 0 0.98 0.04 0 1 0.04 0 
0 0.06 0 0.02 0.06 0 0.04 0.06 0 
0.06 0.06 0 0.08 0.06 0 0.1 0.06 0 
0.12 0.06 0 0.14 0.06 0 0.16 0.06 0 
0.18 0.06 0 0.2 0.06 0 0.22 0.06 0 
0.24 0.06 0 0.26 0.06 0 0.28 0.06 0 
0.3 0.06 0 0.32 0.06 0 0.34 0.06 0 
0.36 0.06 0 0.38 0.06 0 0.4 0.06 0 
0.42 0.06 0 0.44 0.06 0 0.46 0.06 0 
0.48 0.06 0 0.5 0.06 0 0.52 0.06 0 
0.54 0.06 0 0.56 0.06 0 0.58 0.06 0 
0.6 0.06 0 0.62 0.06 0 0.64 0.06 0 
0.66 0.06 0 0.68 0.06 0 0.7 0.06 0 
0.72 0.06 0 0.74 0.06 0 0.76 0.06 0 
0.78 0.06 0 0.8 0.06 0 0.82 0.06 0 
0.84 0.06 0 0.86 0.06 0 0.88 0.06 0 
0.9 0.06 0 0.92 0.06 0 0.94 0.06 0 
0.96 0.06 0 0.98 0.06 0 1 0.06 0 
0 0.08 0 0.02 0.08 0 0.04 0.08 0 
0.06 0.08 0 0.08 0.08 0 0.1 0.08 0 
0.12 0.08 0 0.14 0.08 0 0.16 0.08 0 
0.18 0.08 0 0.2 0.08 0 0.22 0.08 0 
0.24 0.08 0 0.26 0.08 0 0.28 0.08 0 
0.3 0.08 0 0.32 0.08 0 0.34 0.08 0 
0.36 0.08 0 0.38 0.08 0 0.4 0.08 0 
0.42 0.08 0 0.44 0.08 0 0.46 0.08 0 
0.48 0.08 0 0.5 0.08 0 0.52 0.08 0 
0.54 0.08 0 0.56 0.08 0 0.58 0.08 0 
0.6 0.08 0 0.62 0.08 0 0.64 0.08 0 
0.66 0.08 0 0.68 0.08 0 0.7 0.08 0 
0.72 0.08 0 0.74 0.08 0 0.76 0.08 0 
0.78 0.08 0 0.8 0.08 0 0.82 0.08 0 
0.84 0.08 0 0.86 0.08 0 0.88 0.08 0 
0.9 0.08 0 0.92 0.08 0 0.94 0.08 0 
0.96 0.08 0 0.98 0.08 0 1 0.08 0 
0 0.1 0 0.02 0.1 0 0.04 0.1 0 
0.06 0.1 0 0.08 0.1 0 0.1 0.1 0 
0.12 0.1 0 0.14 0.1 0 0.16 0.1 0 
0.18 0.1 0 0.2 0.1 0 0.22 0.1 0 
0.24 0.1 0 0.26 0.1 0 0.28 0.1 0 
0.3 0.1 0 0.32 0.1 0 0.34 0.1 0 
0.36 0.1 0 0.38 0.1 0 0.4 0.1 0 
0.42 0.1 0 0.44 0.1 0 0.46 0.1 0 
0.48 0.1 0 0.5 0.1 0 0.52 0.1 0 
0.54 0.1 0 0.56 0.1 0 0.58 0.1 0 
0.6 0.1 0 0.62 0.1 0 0.64 0.1 0 
0.66 0.1 0 0.68 0.1 0 0.7 0.1 0 
0.72 0.1 0 0.74 0.1 0 0.76 0.1 0 
0.78 0.1 0 0.8 0.1 0 0.82 0.1 0 
0.84 0.1 0 0.86 0.1 0 0.88 0.1 0 
0.9 0.1 0 0.92 0.1 0 0.94 0.1 0 
0.96 0.1 0 0.98 0.1 0 1 0.1 0 
0 0.12 0 0.02 0.12 0 0.04 0.12 0 
0.06 0.12 0 0.08 0.12 0 0.1 0.12 0 
0.12 0.12 0 0.14 0.12 0 0.16 0.12 0 
0.18 0.12 0 0.2 0.12 0 0.22 0.12 0 
0.24 0.12 0 0.26 0.12 0 0.28 0.12 0 
0.3 0.12 0 0.32 0.12 0 0.34 0.12 0 
0.36 0.12 0 0.38 0.12 0 0.4 0.12 0 
0.42 0.12 0 0.44 0.12 0 0.46 0.12 0 
0.48 0.12 0 0.5 0.12 0 0.52 0.12 0 
0.54 0.12 0 0.56 0.12 0 0.58 0.12 0 
0.6 0.12 0 0.62 0.12 0 0.64 0.12 0 
0.66 0.12 0 0.68 0.12 0 0.7 0.12 0 
0.72 0.12 0 0.74 0.12 0 0.76 0.12 0 
0.78 0.12 0 0.8 0.12 0 0.82 0.12 0 
0.84 0.12 0 0.86 0.12 0 0.88 0.12 0 
0.9 0.12 0 0.92 0.12 0 0.94 0.12 0 
0.96 0.12 0 0.98 0.12 0 1 0.12 0 
0 0.14 0 0.02 0.14 0 0.04 0.14 0 
0.06 0.14 0 0.08 0.14 0 0.1 0.14 0 
0.12 0.14 0 0.14 0.14 0 0.16 0.14 0 
0.18 0.14 0 0.2 0.14 0 0.22 0.14 0 
0.24 0.14 0 0.26 0.14 0 0.28 0.14 0 
0.3 0.14 0 0.32 0.14 0 0.34 0.14 0 
0.36 0.14 0 0.38 0.14 0 0.4 0.14 0 
0.42 0.14 0 0.44 0.14 0 0.46 0.14 0 
0.48 0.14 0 0.5 0.14 0 0.52 0.14 0 
0.54 0.14 0 0.56 0.14 0 0.58 0.14 0 
0.6 0.14 0 0.62 0.14 0 0.64 0.14 0 
0.66 0.14 0 0.68 0.14 0 0.7 0.14 0 
0.72 0.14 0 0.74 0.14 0 0.76 0.14 0 
0.78 0.14 0 0.8 0.14 0 0.82 0.14 0 
0.84 0.14 0 0.86 0.14 0 0.88 0.14 0 
0.9 0.14 0 0.92 0.14 0 0.94 0.14 0 
0.96 0.14 0 0.98 0.14 0 1 0.14 0 
0 0.16 0 0.02 0.16 0 0.04 0.16 0 
0.06 0.16 0 0.08 0.16 0 0.1 0.16 0 
0.12 0.16 0 0.14 0.16 0 0.16 0.16 0 
0.18 0.16 0 0.2 0.16 0 0.22 0.16 0 
0.24 0.16 0 0.26 0.16 0 0.28 0.16 0 
0.3 0.16 0 0.32 0.16 0 0.34 0.16 0 
0.36 0.16 0 0.38 0.16 0 0.4 0.16 0 
0.42 0.16 0 0.44 0.16 0 0.46 0.16 0 
0.48 0.16 0 0.5 0.16 0 0.52 0.16 0 
0.54 0.16 0 0.56 0.16 0 0.58 0.16 0 
0.6 0.16 0 0.62 0.16 0 0.64 0.16 0 
0.66 0.16 0 0.68 0.16 0 0.7 0.16 0 
0.72 0.16 0 0.74 0.16 0 0.76 0.16 0 
0.78 0.16 0 0.8 0.16 0 0.82 0.16 0 
0.84 0.16 0 0.86 0.16 0 0.88 0.16 0 
0.9 0.16 0 0.92 0.16 0 0.94 0.16 0 
0.96 0.16 0 0.98 0.16 0 1 0.16 0 
0 0.18 0 0.02 0.18 0 0.04 0.18 0 
0.06 0.18 0 0.08 0.18 0 0.1 0.18 0 
0.12 0.18 0 0.14 0.18 0 0.16 0.18 0 
0.18 0.18 0 0.2 0.18 0 0.22 0.18 0 
0.24 0.18 0 0.26 0.18 0 0.28 0.18 0 
0.3 0.18 0 0.32 0.18 0 0.34 0.18 0 
0.36 0.18 0 0.38 0.18 0 0.4 0.18 0 
0.42 0.18 0 0.44 0.18 0 0.46 0.18 0 
0.48 0.18 0 0.5 0.18 0 0.52 0.18 0 
0.54 0.18 0 0.56 0.18 0 0.58 0.18 0 
0.6 0.18 0 0.62 0.18 0 0.64 0.18 0 
0.66 0.18 0 0.68 0.18 0 0.7 0.18 0 
0.72 0.18 0 0.74 0.18 0 0.76 0.18 0 
0.78 0.18 0 0.8 0.18 0 0.82 0.18 0 
0.84 0.18 0 0.86 0.18 0 0.88 0.18 0 
0.9 0.18 0 0.92 0.18 0 0.94 0.18 0 
0.96 0.18 0 0.98 0.18 0 1 0.18 0 
0 0.2 0 0.02 0.2 0 0.04 0.2 0 
0.06 0.2 0 0.08 0.2 0 0.1 0.2 0 
0.12 0.2 0 0.14 0.2 0 0.16 0.2 0 
0.18 0.2 0 0.2 0.2 0 0.22 0.2 0 
0.24 0.2 0 0.26 0.2 0 0.28 0.2 0 
0.3 0.2 0 0.32 0.2 0 0.34 0.2 0 
0.36 0.2 0 0.38 0.2 0 0.4 0.2 0 
0.42 0.2 0 0.44 0.2 0 0.46 0.2 0 
0.48 0.2 0 0.5 0.2 0 0.52 0.2 0 
0.54 0.2 0 0.56 0.2 0 0.58 0.2 0 
0.6 0.2 0 0.62 0.2 0 0.64 0.2 0 
0.66 0.2 0 0.68 0.2 0 0.7 0.2 0 
0.72 0.2 0 0.74 0.2 0 0.76 0.2 0 
0.78 0.2 0 0.8 0.2 0 0.82 0.2 0 
0.84 0.2 0 0.86 0.2 0 0.88 0.2 0 
0.9 0.2 0 0.92 0.2 0 0.94 0.2 0 
0.96 0.2 0 0.98 0.2 0 1 0.2 0 
0 0.22 0 0.02 0.22 0 0.04 0.22 0 
0.06 0.22 0 0.08 0.22 0 0.1 0.22 0 
0.12 0.22 0 0.14 0.22 0 0.16 0.22 0 
0.18 0.22 0 0.2 0.22 0 0.22 0.22 0 
0.24 0.22 0 0.26 0.22 0 0.28 0.22 0 
0.3 0.22 0 0.32 0.22 0 0.34 0.22 0 
0.36 0.22 0 0.38 0.22 0 0.4 0.22 0 
0.42 0.22 0 0.44 0.22 0 0.46 0.22 0 
0.48 0.22 0 0.5 0.22 0 0.52 0.22 0 
0.54 0.22 0 0.56 0.22 0 0.58 0.22 0 
0.6 0.22 0 0.62 0.22 0 0.64 0.22 0 
0.66 0.22 0 0.68 0.22 0 0.7 0.22 0 
0.72 0.22 0 0.74 0.22 0 0.76 0.22 0 
0.78 0.22 0 0.8 0.22 0 0.82 0.22 0 
0.84 0.22 0 0.86 0.22 0 0.88 0.22 0 
0.9 0.22 0 0.92 0.22 0 0.94 0.22 0 
0.96 0.22 0 0.98 0.22 0 1 0.22 0 
0 0.24 0 0.02 0.24 0 0.04 0.24 0 
0.06 0.24 0 0.08 0.24 0 0.1 0.24 0 
0.12 0.24 0 0.14 0.24 0 0.16 0.24 0 
0.18 0.24 0 0.2 0.24 0 0.22 0.24 0 
0.24 0.24 0 0.26 0.24 0 0.28 0.24 0 
0.3 0.24 0 0.32 0.24 0 0.34 0.24 0 
0.36 0.24 0 0.38 0.24 0 0.4 0.24 0 
0.42 0.24 0 0.44 0.24 0 0.46 0.24 0 
0.48 0.24 0 0.5 0.24 0 0.52 0.24 0 
0.54 0.24 0 0.56 0.24 0 0.58 0.24 0 
0.6 0.24 0 0.62 0.24 0 0.64 0.24 0 
0.66 0.24 0 0.68 0.24 0 0.7 0.24 0 
0.72 0.24 0 0.74 0.24 0 0.76 0.24 0 
0.78 0.24 0 0.8 0.24 0 0.82 0.24 0 
0.84 0.24 0 0.86 0.24 0 0.88 0.24 0 
0.9 0.24 0 0.92 0.24 0 0.94 0.24 0 
0.96 0.24 0 0.98 0.24 0 1 0.24 0 
0 0.26 0 0.02 0.26 0 0.04 0.26 0 
0.06 0.26 0 0.08 0.26 0 0.1 0.26 0 
0.12 0.26 0 0.14 0.26 0 0.16 0.26 0 
0.18 0.26 0 0.2 0.26 0 0.22 0.26 0 
0.24 0.26 0 0.26 0.26 0 0.28 0.26 0 
0.3 0.26 0 0.32 0.26 0 0.34 0.26 0 
0.36 0.26 0 0.38 0.26 0 0.4 0.26 0 
0.42 0.26 0 0.44 0.26 0 0.46 0.26 0 
0.48 0.26 0 0.5 0.26 0 0.52 0.26 0 
0.54 0.26 0 0.56 0.26 0 0.58 0.26 0 
0.6 0.26 0 0.62 0.26 0 0.64 0.26 0 
0.66 0.26 0 0.68 0.26 0 0.7 0.26 0 
0.72 0.26 0 0.74 0.26 0 0.76 0.26 0 
0.78 0.26 0 0.8 0.26 0 0.82 0.26 0 
0.84 0.26 0 0.86 0.26 0 0.88 0.26 0 
0.9 0.26 0 0.92 0.26 0 0.94 0.26 0 
0.96 0.26 0 0.98 0.26 0 1 0.26 0 
0 0.28 0 0.02 0.28 0 0.04 0.28 0 
0.06 0.28 0 0.08 0.28 0 0.1 0.28 0 
0.12 0.28 0 0.14 0.28 0 0.16 0.28 0 
0.18 0.28 0 0.2 0.28 0 0.22 0.28 0 
0.24 0.28 0 0.26 0.28 0 0.28 0.28 0 
0.3 0.28 0 0.32 0.28 0 0.34 0.28 0 
0.36 0.28 0 0.38 0.28 0 0.4 0.28 0 
0.42 0.28 0 0.44 0.28 0 0.46 0.28 0 
0.48 0.28 0 0.5 0.28 0 0.52 0.28 0 
0.54 0.28 0 0.56 0.28 0 0.58 0.28 0 
0.6 0.28 0 0.62 0.28 0 0.64 0.28 0 
0.66 0.28 0 0.68 0.28 0 0.7 0.28 0 
0.72 0.28 0 0.74 0.28 0 0.76 0.28 0 
0.78 0.28 0 0.8 0.28 0 0.82 0.28 0 
0.84 0.28 0 0.86 0.28 0 0.88 0.28 0 
0.9 0.28 0 0.92 0.28 0 0.94 0.28 0 
0.96 0.28 0 0.98 0.28 0 1 0.28 0 
0 0.3 0 0.02 0.3 0 0.04 0.3 0 
0.06 0.3 0 0.08 0.3 0 0.1 0.3 0 
0.12 0.3 0 0.14 0.3 0 0.16 0.3 0 
0.18 0.3 0 0.2 0.3 0 0.22 0.3 0 
0.24 0.3 0 0.26 0.3 0 0.28 0.3 0 
0.3 0.3 0 0.32 0.3 0 0.34 0.3 0 
0.36 0.3 0 0.38 0.3 0 0.4 0.3 0 
0.42 0.3 0 0.44 0.3 0 0.46 0.3 0 
0.48 0.3 0 0.5 0.3 0 0.52 0.3 0 
0.54 0.3 0 0.56 0.3 0 0.58 0.3 0 
0.6 0.3 0 0.62 0.3 0 0.64 0.3 0 
0.66 0.3 0 0.68 0.3 0 0.7 0.3 0 
0.72 0.3 0 0.74 0.3 0 0.76 0.3 0 
0.78 0.3 0 0.8 0.3 0 0.82 0.3 0 
0.84 0.3 0 0.86 0.3 0 0.88 0.3 0 
0.9 0.3 0 0.92 0.3 0 0.94 0.3 0 
0.96 0.3 0 0.98 0.3 0 1 0.3 0 
0 0.32 0 0.02 0.32 0 0.04 0.32 0 
0.06 0.32 0 0.08 0.32 0 0.1 0.32 0 
0.12 0.32 0 0.14 0.32 0 0.16 0.32 0 
0.18 0.32 0 0.2 0.32 0 0.22 0.32 0 
0.24 0.32 0 0.26 0.32 0 0.28 0.32 0 
0.3 0.32 0 0.32 0.32 0 0.34 0.32 0 
0.36 0.32 0 0.38 0.32 0 0.4 0.32 0 
0.42 0.32 0 0.44 0.32 0 0.46 0.32 0 
0.48 0.32 0 0.5 0.32 0 0.52 0.32 0 
0.54 0.32 0 0.56 0.32 0 0.58 0.32 0 
[...]
CELL_DATA 2500
FIELD FieldData 2
pressure 1 2500 double
-0.0056618506826 -0.0056543906365 -0.0056802085965 -0.0057434422973 -0.0058389963528 -0.0059604129666 -0.0061037425307 -0.0062673087315 -0.0064512677281 
-0.0066568899844 -0.0068873181775 -0.0071448473056 -0.0074291751521 -0.0077402384246 -0.0080730540562 -0.008420396426 -0.0087723694877 -0.009116473578 
-0.0094377617384 -0.0097190119832 -0.0099411129069 -0.010083866724 -0.010127105774 -0.010051916862 -0.0098418381369 -0.0094839587237 -0.0089699390704 
-0.0082971209901 -0.0074698775758 -0.0065013057913 -0.0054183055272 -0.0042801222416 -0.00312959902 -0.0020218761517 -0.001019509842 -0.00018744083074 
0.00041391071855 0.00073748401671 0.00075960397496 0.00048968310109 4.8608478361e-06 -0.00061361865536 -0.0012675321735 -0.0018618455202 -0.0023320390754 
-0.0026641219135 -0.0028699701316 -0.0029701000127 -0.0029859792569 -0.002945387038 -0.0056778695848 -0.0056680053655 -0.0056922474131 -0.0057516331827 
-0.0058418694479 -0.0059565396373 -0.0060909705592 -0.0062422576786 -0.006411903176 -0.0066011929493 -0.0068159256552 -0.0070595563707 -0.0073313679745 
-0.0076305429297 -0.0079532902436 -0.0082933532233 -0.008641893655 -0.0089872070034 -0.0093145594027 -0.0096064222019 -0.009843207252 -0.010004298021 
-0.010069210616 -0.010018735545 -0.0098359531184 -0.0095071941713 -0.0090230487161 -0.0083794336998 -0.0075786385529 -0.0066307047773 -0.0055997388653 
-0.0044984018417 -0.0033788100533 -0.0022980137234 -0.0013183628913 -0.00050376099709 8.6821204558e-05 0.00040807718331 0.00043865062796 0.00019163025476 
-0.0002778761853 -0.00083975555625 -0.0014363477639 -0.001972694708 -0.0023873115846 -0.0026724540726 -0.0028456099105 -0.002930849135 -0.0029481733028 
-0.0029065360034 -0.0056589781459 -0.0056456139611 -0.0056723165055 -0.0057358031985 -0.0058276716628 -0.0059380411142 -0.0060629877983 -0.0061982982537 
-0.0063516544636 -0.0065277132389 -0.0067317379296 -0.0069676535623 -0.0072365504252 -0.0075377906528 -0.0078685016044 -0.0082231955064 -0.0085931783249 
-0.0089661449443 -0.0093262595164 -0.0096547813715 -0.0099310325085 -0.010133495316 -0.01024086902 -0.010233021654 -0.010091955859 -0.0098028393634 
-0.0093550588884 -0.0087430320093 -0.0079658640859 -0.0070732975085 -0.0060691206062 -0.004989925674 -0.0038849361086 -0.0028107778776 -0.0018294168942 
-0.001004302805 -0.00039418488338 -4.465422437e-05 2.2042609264e-05 -0.00018245564627 -0.00060463125628 -0.0011487408419 -0.0017043723673 -0.0022078511385 
-0.0025818457353 -0.0028141277632 -0.0029423745307 -0.002996091865 -0.0029970266795 -0.0029458158634 -0.0055932683861 -0.0055855605827 -0.0056228179441 
-0.0056965125046 -0.0057931115069 -0.0059001567883 -0.0060151660334 -0.0061397968867 -0.0062838291153 -0.0064555222964 -0.0066615144994 -0.0069064948636 
-0.0071927706578 -0.0075204247131 -0.0078869007598 -0.008286115405 -0.008707886579 -0.0091379103564 -0.0095583074431 -0.0099485611726 -0.010286577461 
-0.010549658398 -0.010715401613 -0.010762669874 -0.010672668971 -0.010430120427 -0.010024459439 -0.009451011331 -0.008718260769 -0.0078609236949 
-0.0068816728131 -0.0058191285635 -0.0047204256921 -0.0036403692792 -0.0026393644971 -0.0017797152222 -0.0011198417725 -0.00070633558482 -0.00056432786642 
-0.00068760629491 -0.0010315103357 -0.0015137818583 -0.0020295492138 -0.0024948874071 -0.0028497766584 -0.0030464419143 -0.0031354620639 -0.0031570518704 
-0.003139441359 -0.0030864856246 -0.005477953675 -0.005486627129 -0.0055415159025 -0.0056277137589 -0.0057290614975 -0.0058361387485 -0.0059484822514 
-0.0060740846693 -0.0062245890572 -0.006410566682 -0.0066403459008 -0.006919713785 -0.0072517717482 -0.0076365608918 -0.0080701775545 -0.0085442099136 
-0.0090456654387 -0.0095574972316 -0.010059548174 -0.010529549103 -0.010944033101 -0.011279197448 -0.011511842136 -0.011620440315 -0.01158635003 
-0.011395031969 -0.011037068544 -0.010508772004 -0.0098316421887 -0.0090049693947 -0.0080509453912 -0.0070036558691 -0.0059066319607 -0.0048113942509 
-0.0037754367507 -0.0028588671319 -0.0021192182116 -0.0016042851076 -0.0013433960495 -0.0013384409038 -0.0015573195927 -0.0019338528882 -0.00237805695 
-0.0027967943116 -0.0031085814198 -0.0033046334478 -0.0033748044886 -0.0033802417994 -0.0033548370998 -0.0033100790174 -0.0053149651459 -0.00534852918 
-0.0054232925501 -0.0055213172818 -0.0056321269356 -0.0057466167211 -0.0058706027094 -0.0060157786715 -0.0061952801112 -0.0064211554686 -0.0067028763632 
-0.0070468446165 -0.007455824033 -0.0079280047446 -0.0084566038873 -0.0090298619412 -0.0096316114069 -0.010242252803 -0.010839685868 -0.011400173296 
-0.011899171883 -0.012312230532 -0.012616040277 -0.012789633485 -0.012815579311 -0.012681039137 -0.01237870638 -0.011907698725 -0.011280590358 
-0.010493341315 -0.0095688903572 -0.0085383013616 -0.0074410210468 -0.0063242143223 -0.0052412389567 -0.0042488873902 -0.0034030268719 -0.002752479753 
-0.0023314413081 -0.0021514931877 -0.0021952761262 -0.0024147300185 -0.0027365573712 -0.003075437925 -0.0033534116728 -0.00352930482 -0.0036127266179 
-0.00362899906 -0.0036132323679 -0.0035849382384 -0.0051109966483 -0.0051740627595 -0.0052680810006 -0.0053818774194 -0.0055063502012 -0.0056418708338 
-0.0057972496667 -0.0059854572856 -0.0062205041221 -0.006514974643 -0.0068785795463 -0.0073170403445 -0.0078309016805 -0.0084151923765 -0.0090595195076 
-0.0097487642466 -0.010464110069 -0.011183911726 -0.011884532591 -0.012541136433 -0.013128556465 -0.013622349215 -0.013999947497 -0.014241755859 
-0.014332111936 -0.014260137389 -0.014020538337 -0.013614599424 -0.013040575336 -0.012298528145 -0.011408561546 -0.010397916864 -0.0093012699829 
-0.0081604881006 -0.0070236645486 -0.0059431285998 -0.0049720999983 -0.0041598060783 -0.0035452225945 -0.003150170762 -0.0029732216647 -0.0029864717487 
-0.0031373211533 -0.0033567889548 -0.0035754460122 -0.0037466696926 -0.003848018788 -0.0038842562756 -0.003894324901 -0.0038879504642 -0.0048827033377 
-0.0049767664987 -0.0050885497796 -0.0052198221385 -0.0053701393774 -0.0055444284593 -0.0057527997157 -0.0060086115213 -0.0063257455231 -0.006716372238 
-0.0071890203258 -0.0077467950426 -0.008386861038 -0.0091004983186 -0.009873907941 -0.01068931794 -0.011525797249 -0.012360082655 -0.013167333795 
-0.013922003133 -0.014598918221 -0.01517439731 -0.015627258379 -0.015939663548 -0.016097798578 -0.016092453519 -0.015919704274 -0.015581836723 
-0.015065244198 -0.01437327095 -0.013522929625 -0.012537201836 -0.011445407963 -0.010283314829 -0.0090927502764 -0.0079204378805 -0.0068157610441 
-0.0058272470877 -0.0049977820324 -0.0043589577909 -0.0039254635843 -0.0036909049843 -0.0036266585553 -0.0036852873649 -0.0038095703507 -0.0039463304357 
-0.0040585681496 -0.004146735651 -0.0041945081127 -0.0042126629303 -0.00465652039 -0.0047780930194 -0.0049081215616 -0.0050647656356 -0.0052547035379 
-0.0054851815925 -0.0057667444815 -0.0061122558725 -0.0065346210212 -0.0070442690233 -0.0076466170718 -0.0083410817078 -0.0091208905828 -0.0099738570728 
-0.010883512705 -0.011829873697 -0.012790260694 -0.013740017138 -0.014653408376 -0.015504760409 -0.016269561659 -0.016925447729 -0.017452955056 
-0.017836041221 -0.018062487217 -0.018124369638 -0.018018669504 -0.017748011857 -0.017290930197 -0.016652660518 -0.015847160869 -0.014892952907 
-0.013813640529 -0.012638325184 -0.01140174734 -0.010143938537 -0.0089091185608 -0.0077435953541 -0.0066925562166 -0.0057958741529 -0.0050833665565 
-0.0045702579755 -0.0042538300411 -0.004112334644 -0.0041072603881 -0.0041901143539 -0.0043148283908 -0.0044404220861 -0.0045247358672 -0.004567706368 
-0.0044673011076 -0.0046114795063 -0.0047641213434 -0.0049550925789 -0.0051967655484 -0.0054978951019 -0.0058688453328 -0.0063213444101 -0.0068662175642 
-0.0075103411286 -0.0082550485394 -0.0090955198257 -0.01002133245 -0.011017510575 -0.012065194133 -0.013142436284 -0.014224884511 -0.015286714589 
-0.016301844156 -0.017245061114 -0.018093038705 -0.018825042523 -0.019423348692 -0.019873547499 -0.020164846788 -0.020290439558 -0.02024795384 
-0.020040040816 -0.01964191329 -0.019059484764 -0.018303745218 -0.01738879257 -0.01633242672 -0.015156796814 -0.013889003736 -0.012561479796 
-0.011211932654 -0.0098826308721 -0.0086188369318 -0.0074662766196 -0.0064676737271 -0.0056585192692 -0.0050623522737 -0.0046859179528 -0.0045148376651 
-0.0045113077462 -0.004617316178 -0.0047651833093 -0.0048981278528 -0.0049688487708 -0.0043557140542 -0.0045205604467 -0.004698325423 -0.0049300542716 
-0.0052319445893 -0.0056136761495 -0.0060849420104 -0.0066555165012 -0.0073325411678 -0.0081184893619 -0.0090101309241 -0.0099986939259 -0.011070719023 
-0.01220855216 -0.013391052842 -0.014594225058 -0.01579217862 -0.016958419978 -0.018067038995 -0.019093795651 -0.020016823084 -0.020817022211 
-0.021478347009 -0.021987995928 -0.022336611903 -0.022518518316 -0.022532001245 -0.022379610578 -0.022037440259 -0.021511304671 -0.020809433293 
-0.019941728704 -0.018920390179 -0.01776070444 -0.016481945256 -0.015108310199 -0.013669770097 -0.012202639104 -0.010749631072 -0.0093591382708 
-0.0080834318635 -0.0069754133148 -0.0060834605983 -0.0054438709828 -0.0050707451513 -0.0049447325147 -0.0050065410991 -0.0051670421114 -0.0053401516589 
-0.005437764414 -0.0043610868415 -0.00454298639 -0.0047471133101 -0.00502288807 -0.0053894406636 -0.0058568929867 -0.0064336897486 -0.0071263150981 
-0.0079374869489 -0.0088649417806 -0.009901198315 -0.011034138464 -0.012247270429 -0.013520252633 -0.014829439248 -0.016148833148 -0.017451455964 
-0.018710603919 -0.019901031123 -0.020999685264 -0.021986148449 -0.022842971796 -0.023555822443 -0.024113625322 -0.024508663309 -0.024736598735 
-0.024796459381 -0.02469062342 -0.024399422934 -0.023928298896 -0.023282987031 -0.02246965604 -0.021495456679 -0.020369282737 -0.019102795523 
-0.017711724513 -0.016217398807 -0.014648405497 -0.013042171158 -0.011446115447 -0.0099178233523 -0.0085234187627 -0.0073329870689 -0.006411626841 
-0.00580497152 -0.0055199524636 -0.0055074537028 -0.0056643808343 -0.0058665965373 -0.0059913953825 -0.0045119549572 -0.0047068004813 -0.0049365686045 
-0.0052568452778 -0.0056888275334 -0.0062425650486 -0.0069241809213 -0.0077361916395 -0.0086767505621 -0.0097392344689 -0.010912578391 -0.012181317093 
-0.013525840818 -0.014922814294 -0.016346064038 -0.017768008786 -0.019160991776 -0.020498571664 -0.021756316528 -0.022912335573 -0.023947715483 
-0.024846689285 -0.02559683016 -0.026189092311 -0.026617664356 -0.026879742542 -0.026975205711 -0.026906328003 -0.026659765814 -0.026240657909 
-0.02565266456 -0.024898898982 -0.023982281036 -0.022906153988 -0.021675247039 -0.020297085497 -0.0187839369 -0.017155303787 -0.015440823145 
-0.013683222562 -0.011940654549 -0.010287254925 -0.0088101547817 -0.0076005972588 -0.0067367841528 -0.0062578849044 -0.0061349098233 -0.0062583699519 
-0.0064700133204 -0.0066385549006 -0.0048245276615 -0.0050273954418 -0.0052805637763 -0.0056435488277 -0.0061386712382 -0.0067749293289 -0.00755541439 
-0.008478696708 -0.0095388238878 -0.010725582066 -0.012024423752 -0.013416429016 -0.014878558925 -0.016384425473 -0.017905738852 -0.0194137205 
-0.020880501721 -0.022279999736 -0.023588559297 -0.024785523207 -0.025853482326 -0.026778602151 -0.027550680272 -0.028162935946 -0.02861168788 
-0.028895805166 -0.029016137051 -0.028974963692 -0.028766054908 -0.028394499716 -0.027862380442 -0.027170554516 -0.026318765636 -0.025305980421 
-0.024131104389 -0.022794279067 -0.021298950321 -0.019654842255 -0.017881847227 -0.01601458903 -0.014106965881 -0.012235316248 -0.010497949306 
-0.009007812826 -0.0078745917621 -0.0071739345566 -0.0069078027182 -0.0069764576821 -0.0072039159917 -0.0074034442885 -0.0053015393419 -0.0055073124652 
-0.0057807420225 -0.0061830352858 -0.006736332886 -0.007447654875 -0.0083170974366 -0.009339797227 -0.010506552166 -0.011803838468 -0.013213546111 
-0.014713051261 -0.01627583278 -0.017872882137 -0.019474200889 -0.021050294891 -0.022573155742 -0.024017020607 -0.025359091092 -0.026579911689 
-0.027663877701 -0.028599381682 -0.029378623264 -0.029997296928 -0.030453907749 -0.030749042945 -0.030884585738 -0.030862965758 -0.030684821458 
-0.030355266777 -0.02987535037 -0.029244557457 -0.028460616864 -0.027519501567 -0.026415791189 -0.025143635546 -0.023698610595 -0.022080777551 
-0.020299154668 -0.018377543356 -0.016361146455 -0.014322585252 -0.012364722756 -0.010616291445 -0.0092152633749 -0.0082755915673 -0.0078385563369 
-0.0078268141898 -0.0080510074813 -0.0082857165874 -0.005933584514 -0.0061376155749 -0.0064277985791 -0.0068647394994 -0.0074689792589 -0.00824534946 
-0.009191421365 -0.01029976393 -0.0115584017 -0.012950480262 -0.014454174354 -0.016043145338 -0.017687859835 -0.019357168417 -0.021019882797 
-0.022645882848 -0.024206994272 -0.025677865634 -0.027036508156 -0.028265013693 -0.029349848884 -0.030281759124 -0.031055541078 -0.031669300815 
-0.032123669946 -0.032420900445 -0.03256390662 -0.032555249117 -0.032401653982 -0.0321079322 -0.031674646813 -0.031100739368 -0.030383079867 
-0.029516137808 -0.028491914373 -0.027300391741 -0.025930891271 -0.024374806968 -0.022630160576 -0.020708218358 -0.018641874131 -0.016494528708 
-0.014366729722 -0.012395964999 -0.010743236259 -0.0095597364868 -0.0089313317216 -0.0088147525318 -0.009018840724 -0.0092857488776 -0.0067017210886 
-0.0069001741347 -0.0072034248592 -0.0076692001698 -0.0083156877397 -0.0091457893737 -0.010155297362 -0.011334822356 -0.012669660121 -0.014139556426 
-0.015719017437 -0.017378497774 -0.019086040822 -0.020808929988 -0.022514939502 -0.024173323869 -0.025755855231 -0.027237550885 -0.028597614458 
-0.029819933013 -0.030893143638 -0.031810543146 -0.03256936031 -0.033169968419 -0.03361493547 -0.033908022636 -0.034053320125 -0.034052355005 
-0.033918356155 -0.033654199066 -0.03326062374 -0.032736784031 -0.032079727396 -0.031283822986 -0.030340263802 -0.029236920116 -0.027958975308 
-0.026490947457 -0.024820816307 -0.022946854055 -0.020887250766 -0.018691591972 -0.016451537051 -0.014305694403 -0.012431128207 -0.011012449101 
-0.0101821862 -0.0099408222524 -0.010108549874 -0.010399948788 -0.0075803767318 -0.0077702108279 -0.0080824863914 -0.0085705180725 -0.009250012465 
-0.010122420947 -0.011182363914 -0.012418581195 -0.013813594779 -0.015343840007 -0.016980678926 -0.018692062854 -0.020444251938 -0.022203217132 
-0.023935736433 -0.025610580952 -0.027199450967 -0.028678136013 -0.030027278611 -0.031232657352 -0.032285292176 -0.033180808695 -0.033918687026 
-0.034501291395 -0.034932771886 -0.035218121852 -0.03536225385 -0.03536718484 -0.035248236278 -0.035007492129 -0.034646076512 -0.03416382426 
-0.033558732804 -0.032826200743 -0.031958175339 -0.030942421309 -0.029762324622 -0.028397933403 -0.026829170397 -0.025042201053 -0.023039591876 
-0.020853851533 -0.01856202507 -0.0162961997 -0.014241387133 -0.012609442974 -0.011578513344 -0.011199910381 -0.011319178115 -0.011633301686 
-0.0085400856575 -0.0087186488668 -0.0090355100785 -0.0095390162385 -0.010242551962 -0.011146564457 -0.012244571315 -0.013523332749 -0.014962678028 
-0.016536228289 -0.018212984127 -0.01995910385 -0.02173944315 -0.023518755138 -0.02526299607 -0.026940482462 -0.028523244033 -0.029988113826 
-0.031317271517 -0.032498609728 -0.03352529153 -0.034395093756 -0.035109471189 -0.035672364413 -0.03608916468 -0.036365667081 -0.036507280937 
-0.036517410365 -0.036409951288 -0.036187108231 -0.035850490428 -0.035400875118 -0.03483765025 -0.034157983721 -0.03335573472 -0.032420247638 
-0.03133538656 -0.030079462088 -0.028627111432 -0.026954531853 -0.025049332849 -0.02292532528 -0.020640539677 -0.018313508264 -0.016128584319 
-0.014316865973 -0.013097987936 -0.012577459746 -0.012637569771 -0.01296518213 -0.009549731221 -0.0097143632453 -0.010031181478 -0.010543663236 
-0.0112631451 -0.012189041624 -0.013313499851 -0.01462128246 -0.016089929631 -0.017691038143 -0.01939201901 -0.021157735581 -0.022951797758 
-0.024737944206 -0.026481409231 -0.028150430722 -0.029717690585 -0.031161161629 -0.032464782367 -0.033618335176 -0.034616952758 -0.035460321384 
-0.036151438984 -0.036695490011 -0.037098631921 -0.037367066724 -0.037506333081 -0.03752119854 -0.037422642059 -0.037213127956 -0.036894808192 
-0.036469442243 -0.035937944134 -0.035299568057 -0.034550744157 -0.033683611903 -0.032684436993 -0.031532447387 -0.030200176948 -0.028656982625 
-0.026877661228 -0.024857464344 -0.022632712413 -0.020302544899 -0.018042251846 -0.016092970139 -0.014708943313 -0.014049483015 -0.014042631951 
-0.014375247935 -0.010578411802 -0.010726258178 -0.011038413368 -0.011554049477 -0.012282404968 -0.013221376837 -0.014361502731 -0.015685768228 
-0.01717012722 -0.018784951936 -0.020496652642 -0.022269025997 -0.024064661212 -0.025846466046 -0.027579292449 -0.029231691245 -0.030777097763 
-0.032194833889 -0.033470415412 -0.03459532066 -0.035566457283 -0.036384989672 -0.037055168891 -0.037582958901 -0.037974873994 -0.038237079916 
-0.038374903161 -0.038394204504 -0.038302659119 -0.03810293079 -0.037797611865 -0.037389324553 -0.036880381185 -0.036272100265 -0.035563711557 
-0.034750809493 -0.033823399142 -0.032763862556 -0.031545762815 -0.030135250751 -0.028497631539 -0.026611456777 -0.024490568304 -0.022210546699 
-0.019930096026 -0.017890758132 -0.016372440498 -0.015584455226 -0.015506611204 -0.015836648347 -0.011597249743 -0.01172469303 -0.012027854043 
-0.012541664836 -0.013272694106 -0.014216767639 -0.0153627398 -0.016692326357 -0.018180655952 -0.019797513491 -0.021508603178 -0.023276892449 
-0.025064210038 -0.026832943841 -0.028548019924 -0.030178435303 -0.031698569599 -0.033088973732 -0.034336511859 -0.035434205099 -0.036380314118 
-0.037177225036 -0.037830014708 -0.038345034431 -0.03872874525 -0.038986966241 -0.039124544579 -0.039147817065 -0.039061965316 -0.038869433749 
-0.038573046172 -0.038176066293 -0.037681982949 -0.037093949322 -0.036413862541 -0.035640930635 -0.034769597665 -0.033786931592 -0.032670125358 
-0.031385770155 -0.029893738408 -0.028159178332 -0.026174613839 -0.023989901186 -0.021741129679 -0.019660988655 -0.018044871155 -0.017145399418 
-0.016996746466 -0.017317992581 -0.012581573595 -0.012681574891 -0.012972724921 -0.013480616385 -0.014208885275 -0.015150897423 -0.016294059856 
-0.017619436842 -0.019101960264 -0.020711178321 -0.022412326382 -0.024167856314 -0.025939136905 -0.027688534339 -0.029381254733 -0.030986917837 
-0.032480802821 -0.03384444041 -0.035065909951 -0.03613937539 -0.037064191344 -0.037843580339 -0.0384830519 -0.038988976358 -0.039367502597 
-0.039623977014 -0.039762800734 -0.039788549879 -0.039707910836 -0.039520752787 -0.039230198654 -0.038840045689 -0.038354694428 -0.037778817827 
-0.037116660385 -0.036370801926 -0.035540202177 -0.034617341063 -0.033584863899 -0.032412959047 -0.031060280268 -0.02948287064 -0.027654824022 
-0.025600205436 -0.023428394912 -0.021355085811 -0.019680623787 -0.018692053729 -0.018477059181 -0.018785049686 -0.013504136358 -0.013580125591 
-0.013849717438 -0.014348276406 -0.015069029416 -0.016002659581 -0.01713566417 -0.01844893403 -0.019917597089 -0.021511198052 -0.023194836121 
-0.024930752317 -0.026680368671 -0.028406339445 -0.030074321327 -0.031654601723 -0.033123134316 -0.034462291962 -0.035661007888 -0.036714300853 
-0.037622267765 -0.038388554563 -0.039018760062 -0.039519016562 -0.039895008503 -0.040151462545 -0.040292220195 -0.040320604271 -0.040244244541 
-0.040060849995 -0.039773666107 -0.039386828947 -0.038905460683 -0.038335452097 -0.03768293346 -0.03695335353 -0.036149802064 -0.035270226944 
-0.034303634575 -0.033226111198 -0.031998960121 -0.030573851745 -0.028910612274 -0.027009401693 -0.024950968624 -0.022927576735 -0.021234480292 
-0.020182877069 -0.019909940429 -0.020202113376 -0.014341371612 -0.014404687568 -0.014647911982 -0.015125649108 -0.015835046061 -0.016754719191 
-0.017871494199 -0.019166071789 -0.020614112094 -0.022185482337 -0.023845450673 -0.025556545851 -0.027280663992 -0.028980935781 -0.030623580951 