# vtk DataFile Version 4.1
vtk output
ASCII
DATASET STRUCTURED_GRID
DIMENSIONS 51 51 1
POINTS 2601 float
0 0 0 0.02 0 0 0.04 0 0 
0.06 0 0 0.08 0 0 0.1 0 0 
0.12 0 0 0.14 0 0 0.16 0 0 
0.18 0 0 0.2 0 0 0.22 0 0 
0.24 0 0 0.26 0 0 0.28 0 0 
0.3 0 0 0.32 0 0 0.34 0 0 
0.36 0 0 0.38 0 0 0.4 0 0 
0.42 0 0 0.44 0 0 0.46 0 0 
0.48 0 0 0.5 0 0 0.52 0 0 
0.54 0 0 0.56 0 0 0.58 0 0 
0.6 0 0 0.62 0 0 0.64 0 0 
0.66 0 0 0.68 0 0 0.7 0 0 
0.72 0 0 0.74 0 0 0.76 0 0 
0.78 0 0 0.8 0 0 0.82 0 0 
0.84 0 0 0.86 0 0 0.88 0 0 
0.9 0 0 0.92 0 0 0.94 0 0 
0.96 0 0 0.98 0 0 1 0 0 
0 0.02 0 0.02 0.02 0 0.04 0.02 0 
0.06 0.02 0 0.08 0.02 0 0.1 0.02 0 
0.12 0.02 0 0.14 0.02 0 0.16 0.02 0 
0.18 0.02 0 0.2 0.02 0 0.22 0.02 0 
0.24 0.02 0 0.26 0.02 0 0.28 0.02 0 
0.3 0.02 0 0.32 0.02 0 0.34 0.02 0 
0.36 0.02 0 0.38 0.02 0 0.4 0.02 0 
0.42 0.02 0 0.44 0.02 0 0.46 0.02 0 
0.48 0.02 0 0.5 0.02 0 0.52 0.02 0 
0.54 0.02 0 0.56 0.02 0 0.58 0.02 0 
0.6 0.02 0 0.62 0.02 0 0.64 0.02 0 
0.66 0.02 0 0.68 0.02 0 0.7 0.02 0 
0.72 0.02 0 0.74 0.02 0 0.76 0.02 0 
0.78 0.02 0 0.8 0.02 0 0.82 0.02 0 
0.84 0.02 0 0.86 0.02 0 0.88 0.02 0 
0.9 0.02 0 0.92 0.02 0 0.94 0.02 0 
0.96 0.02 0 0.98 0.02 0 1 0.02 0 
0 0.04 0 0.02 0.04 0 0.04 0.04 0 
0.06 0.04 0 0.08 0.04 0 0.1 0.04 0 
0.12 0.04 0 0.14 0.04 0 0.16 0.04 0 
0.18 0.04 0 0.2 0.04 0 0.22 0.04 0 
0.24 0.04 0 0.26 0.04 0 0.28 0.04 0 
0.3 0.04 0 0.32 0.04 0 0.34 0.04 0 
0.36 0.04 0 0.38 0.04 0 0.4 0.04 0 
0.42 0.04 0 0.44 0.04 0 0.46 0.04 0 
0.48 0.04 0 0.5 0.04 0 0.52 0.04 0 
0.54 0.04 0 0.56 0.04 0 0.58 0.04 0 
0.6 0.04 0 0.62 0.04 0 0.64 0.04 0 
0.66 0.04 0 0.68 0.04 0 0.7 0.04 0 
0.72 0.04 0 0.74 0.04 0 0.76 0.04 0 
0.78 0.04 0 0.8 0.04 0 0.82 0.04 0 
0.84 0.04 0 0.86 0.04 0 0.88 0.04 0 
0.9 0.04 0 0.92 0.04 0 0.94 0.04 0 
0.96 0.04 0 0.98 0.04 0 1 0.04 0 
0 0.06 0 0.02 0.06 0 0.04 0.06 0 
0.06 0.06 0 0.08 0.06 0 0.1 0.06 0 
0.12 0.06 0 0.14 0.06 0 0.16 0.06 0 
0.18 0.06 0 0.2 0.06 0 0.22 0.06 0 
0.24 0.06 0 0.26 0.06 0 0.28 0.06 0 
0.3 0.06 0 0.32 0.06 0 0.34 0.06 0 
0.36 0.06 0 0.38 0.06 0 0.4 0.06 0 
0.42 0.06 0 0.44 0.06 0 0.46 0.06 0 
0.48 0.06 0 0.5 0.06 0 0.52 0.06 0 
0.54 0.06 0 0.56 0.06 0 0.58 0.06 0 
0.6 0.06 0 0.62 0.06 0 0.64 0.06 0 
0.66 0.06 0 0.68 0.06 0 0.7 0.06 0 
0.72 0.06 0 0.74 0.06 0 0.76 0.06 0 
0.78 0.06 0 0.8 0.06 0 0.82 0.06 0 
0.84 0.06 0 0.86 0.06 0 0.88 0.06 0 
0.9 0.06 0 0.92 0.06 0 0.94 0.06 0 
0.96 0.06 0 0.98 0.06 0 1 0.06 0 
0 0.08 0 0.02 0.08 0 0.04 0.08 0 
0.06 0.08 0 0.08 0.08 0 0.1 0.08 0 
0.12 0.08 0 0.14 0.08 0 0.16 0.08 0 
0.18 0.08 0 0.2 0.08 0 0.22 0.08 0 
0.24 0.08 0 0.26 0.08 0 0.28 0.08 0 
0.3 0.08 0 0.32 0.08 0 0.34 0.08 0 
0.36 0.08 0 0.38 0.08 0 0.4 0.08 0 
0.42 0.08 0 0.44 0.08 0 0.46 0.08 0 
0.48 0.08 0 0.5 0.08 0 0.52 0.08 0 
0.54 0.08 0 0.56 0.08 0 0.58 0.08 0 
0.6 0.08 0 0.62 0.08 0 0.64 0.08 0 
0.66 0.08 0 0.68 0.08 0 0.7 0.08 0 
0.72 0.08 0 0.74 0.08 0 0.76 0.08 0 
0.78 0.08 0 0.8 0.08 0 0.82 0.08 0 
0.84 0.08 0 0.86 0.08 0 0.88 0.08 0 
0.9 0.08 0 0.92 0.08 0 0.94 0.08 0 
0.96 0.08 0 0.98 0.08 0 1 0.08 0 
0 0.1 0 0.02 0.1 0 0.04 0.1 0 
0.06 0.1 0 0.08 0.1 0 0.1 0.1 0 
0.12 0.1 0 0.14 0.1 0 0.16 0.1 0 
0.18 0.1 0 0.2 0.1 0 0.22 0.1 0 
0.24 0.1 0 0.26 0.1 0 0.28 0.1 0 
0.3 0.1 0 0.32 0.1 0 0.34 0.1 0 
0.36 0.1 0 0.38 0.1 0 0.4 0.1 0 
0.42 0.1 0 0.44 0.1 0 0.46 0.1 0 
0.48 0.1 0 0.5 0.1 0 0.52 0.1 0 
0.54 0.1 0 0.56 0.1 0 0.58 0.1 0 
0.6 0.1 0 0.62 0.1 0 0.64 0.1 0 
0.66 0.1 0 0.68 0.1 0 0.7 0.1 0 
0.72 0.1 0 0.74 0.1 0 0.76 0.1 0 
0.78 0.1 0 0.8 0.1 0 0.82 0.1 0 
0.84 0.1 0 0.86 0.1 0 0.88 0.1 0 
0.9 0.1 0 0.92 0.1 0 0.94 0.1 0 
0.96 0.1 0 0.98 0.1 0 1 0.1 0 
0 0.12 0 0.02 0.12 0 0.04 0.12 0 
0.06 0.12 0 0.08 0.12 0 0.1 0.12 0 
0.12 0.12 0 0.14 0.12 0 0.16 0.12 0 
0.18 0.12 0 0.2 0.12 0 0.22 0.12 0 
0.24 0.12 0 0.26 0.12 0 0.28 0.12 0 
0.3 0.12 0 0.32 0.12 0 0.34 0.12 0 
0.36 0.12 0 0.38 0.12 0 0.4 0.12 0 
0.42 0.12 0 0.44 0.12 0 0.46 0.12 0 
0.48 0.12 0 0.5 0.12 0 0.52 0.12 0 
0.54 0.12 0 0.56 0.12 0 0.58 0.12 0 
0.6 0.12 0 0.62 0.12 0 0.64 0.12 0 
0.66 0.12 0 0.68 0.12 0 0.7 0.12 0 
0.72 0.12 0 0.74 0.12 0 0.76 0.12 0 
0.78 0.12 0 0.8 0.12 0 0.82 0.12 0 
0.84 0.12 0 0.86 0.12 0 0.88 0.12 0 
0.9 0.12 0 0.92 0.12 0 0.94 0.12 0 
0.96 0.12 0 0.98 0.12 0 1 0.12 0 
0 0.14 0 0.02 0.14 0 0.04 0.14 0 
0.06 0.14 0 0.08 0.14 0 0.1 0.14 0 
0.12 0.14 0 0.14 0.14 0 0.16 0.14 0 
0.18 0.14 0 0.2 0.14 0 0.22 0.14 0 
0.24 0.14 0 0.26 0.14 0 0.28 0.14 0 
0.3 0.14 0 0.32 0.14 0 0.34 0.14 0 
0.36 0.14 0 0.38 0.14 0 0.4 0.14 0 
0.42 0.14 0 0.44 0.14 0 0.46 0.14 0 
0.48 0.14 0 0.5 0.14 0 0.52 0.14 0 
0.54 0.14 0 0.56 0.14 0 0.58 0.14 0 
0.6 0.14 0 0.62 0.14 0 0.64 0.14 0 
0.66 0.14 0 0.68 0.14 0 0.7 0.14 0 
0.72 0.14 0 0.74 0.14 0 0.76 0.14 0 
0.78 0.14 0 0.8 0.14 0 0.82 0.14 0 
0.84 0.14 0 0.86 0.14 0 0.88 0.14 0 
0.9 0.14 0 0.92 0.14 0 0.94 0.14 0 
0.96 0.14 0 0.98 0.14 0 1 0.14 0 
0 0.16 0 0.02 0.16 0 0.04 0.16 0 
0.06 0.16 0 0.08 0.16 0 0.1 0.16 0 
0.12 0.16 0 0.14 0.16 0 0.16 0.16 0 
0.18 0.16 0 0.2 0.16 0 0.22 0.16 0 
0.24 0.16 0 0.26 0.16 0 0.28 0.16 0 
0.3 0.16 0 0.32 0.16 0 0.34 0.16 0 
0.36 0.16 0 0.38 0.16 0 0.4 0.16 0 
0.42 0.16 0 0.44 0.16 0 0.46 0.16 0 
0.48 0.16 0 0.5 0.16 0 0.52 0.16 0 
0.54 0.16 0 0.56 0.16 0 0.58 0.16 0 
0.6 0.16 0 0.62 0.16 0 0.64 0.16 0 
0.66 0.16 0 0.68 0.16 0 0.7 0.16 0 
0.72 0.16 0 0.74 0.16 0 0.76 0.16 0 
0.78 0.16 0 0.8 0.16 0 0.82 0.16 0 
0.84 0.16 0 0.86 0.16 0 0.88 0.16 0 
0.9 0.16 0 0.92 0.16 0 0.94 0.16 0 
0.96 0.16 0 0.98 0.16 0 1 0.16 0 
0 0.18 0 0.02 0.18 0 0.04 0.18 0 
0.06 0.18 0 0.08 0.18 0 0.1 0.18 0 
0.12 0.18 0 0.14 0.18 0 0.16 0.18 0 
0.18 0.18 0 0.2 0.18 0 0.22 0.18 0 
0.24 0.18 0 0.26 0.18 0 0.28 0.18 0 
0.3 0.18 0 0.32 0.18 0 0.34 0.18 0 
0.36 0.18 0 0.38 0.18 0 0.4 0.18 0 
0.42 0.18 0 0.44 0.18 0 0.46 0.18 0 
0.48 0.18 0 0.5 0.18 0 0.52 0.18 0 
0.54 0.18 0 0.56 0.18 0 0.58 0.18 0 
0.6 0.18 0 0.62 0.18 0 0.64 0.18 0 
0.66 0.18 0 0.68 0.18 0 0.7 0.18 0 
0.72 0.18 0 0.74 0.18 0 0.76 0.18 0 
0.78 0.18 0 0.8 0.18 0 0.82 0.18 0 
0.84 0.18 0 0.86 0.18 0 0.88 0.18 0 
0.9 0.18 0 0.92 0.18 0 0.94 0.18 0 
0.96 0.18 0 0.98 0.18 0 1 0.18 0 
0 0.2 0 0.02 0.2 0 0.04 0.2 0 
0.06 0.2 0 0.08 0.2 0 0.1 0.2 0 
0.12 0.2 0 0.14 0.2 0 0.16 0.2 0 
0.18 0.2 0 0.2 0.2 0 0.22 0.2 0 
0.24 0.2 0 0.26 0.2 0 0.28 0.2 0 
0.3 0.2 0 0.32 0.2 0 0.34 0.2 0 
0.36 0.2 0 0.38 0.2 0 0.4 0.2 0 
0.42 0.2 0 0.44 0.2 0 0.46 0.2 0 
0.48 0.2 0 0.5 0.2 0 0.52 0.2 0 
0.54 0.2 0 0.56 0.2 0 0.58 0.2 0 
0.6 0.2 0 0.62 0.2 0 0.64 0.2 0 
0.66 0.2 0 0.68 0.2 0 0.7 0.2 0 
0.72 0.2 0 0.74 0.2 0 0.76 0.2 0 
0.78 0.2 0 0.8 0.2 0 0.82 0.2 0 
0.84 0.2 0 0.86 0.2 0 0.88 0.2 0 
0.9 0.2 0 0.92 0.2 0 0.94 0.2 0 
0.96 0.2 0 0.98 0.2 0 1 0.2 0 
0 0.22 0 0.02 0.22 0 0.04 0.22 0 
0.06 0.22 0 0.08 0.22 0 0.1 0.22 0 
0.12 0.22 0 0.14 0.22 0 0.16 0.22 0 
0.18 0.22 0 0.2 0.22 0 0.22 0.22 0 
0.24 0.22 0 0.26 0.22 0 0.28 0.22 0 
0.3 0.22 0 0.32 0.22 0 0.34 0.22 0 
0.36 0.22 0 0.38 0.22 0 0.4 0.22 0 
0.42 0.22 0 0.44 0.22 0 0.46 0.22 0 
0.48 0.22 0 0.5 0.22 0 0.52 0.22 0 
0.54 0.22 0 0.56 0.22 0 0.58 0.22 0 
0.6 0.22 0 0.62 0.22 0 0.64 0.22 0 
0.66 0.22 0 0.68 0.22 0 0.7 0.22 0 
0.72 0.22 0 0.74 0.22 0 0.76 0.22 0 
0.78 0.22 0 0.8 0.22 0 0.82 0.22 0 
0.84 0.22 0 0.86 0.22 0 0.88 0.22 0 
0.9 0.22 0 0.92 0.22 0 0.94 0.22 0 
0.96 0.22 0 0.98 0.22 0 1 0.22 0 
0 0.24 0 0.02 0.24 0 0.04 0.24 0 
0.06 0.24 0 0.08 0.24 0 0.1 0.24 0 
0.12 0.24 0 0.14 0.24 0 0.16 0.24 0 
0.18 0.24 0 0.2 0.24 0 0.22 0.24 0 
0.24 0.24 0 0.26 0.24 0 0.28 0.24 0 
0.3 0.24 0 0.32 0.24 0 0.34 0.24 0 
0.36 0.24 0 0.38 0.24 0 0.4 0.24 0 
0.42 0.24 0 0.44 0.24 0 0.46 0.24 0 
0.48 0.24 0 0.5 0.24 0 0.52 0.24 0 
0.54 0.24 0 0.56 0.24 0 0.58 0.24 0 
0.6 0.24 0 0.62 0.24 0 0.64 0.24 0 
0.66 0.24 0 0.68 0.24 0 0.7 0.24 0 
0.72 0.24 0 0.74 0.24 0 0.76 0.24 0 
0.78 0.24 0 0.8 0.24 0 0.82 0.24 0 
0.84 0.24 0 0.86 0.24 0 0.88 0.24 0 
0.9 0.24 0 0.92 0.24 0 0.94 0.24 0 
0.96 0.24 0 0.98 0.24 0 1 0.24 0 
0 0.26 0 0.02 0.26 0 0.04 0.26 0 
0.06 0.26 0 0.08 0.26 0 0.1 0.26 0 
0.12 0.26 0 0.14 0.26 0 0.16 0.26 0 
0.18 0.26 0 0.2 0.26 0 0.22 0.26 0 
0.24 0.26 0 0.26 0.26 0 0.28 0.26 0 
0.3 0.26 0 0.32 0.26 0 0.34 0.26 0 
0.36 0.26 0 0.38 0.26 0 0.4 0.26 0 
0.42 0.26 0 0.44 0.26 0 0.46 0.26 0 
0.48 0.26 0 0.5 0.26 0 0.52 0.26 0 
0.54 0.26 0 0.56 0.26 0 0.58 0.26 0 
0.6 0.26 0 0.62 0.26 0 0.64 0.26 0 
0.66 0.26 0 0.68 0.26 0 0.7 0.26 0 
0.72 0.26 0 0.74 0.26 0 0.76 0.26 0 
0.78 0.26 0 0.8 0.26 0 0.82 0.26 0 
0.84 0.26 0 0.86 0.26 0 0.88 0.26 0 
0.9 0.26 0 0.92 0.26 0 0.94 0.26 0 
0.96 0.26 0 0.98 0.26 0 1 0.26 0 
0 0.28 0 0.02 0.28 0 0.04 0.28 0 
0.06 0.28 0 0.08 0.28 0 0.1 0.28 0 
0.12 0.28 0 0.14 0.28 0 0.16 0.28 0 
0.18 0.28 0 0.2 0.28 0 0.22 0.28 0 
0.24 0.28 0 0.26 0.28 0 0.28 0.28 0 
0.3 0.28 0 0.32 0.28 0 0.34 0.28 0 
0.36 0.28 0 0.38 0.28 0 0.4 0.28 0 
0.42 0.28 0 0.44 0.28 0 0.46 0.28 0 
0.48 0.28 0 0.5 0.28 0 0.52 0.28 0 
0.54 0.28 0 0.56 0.28 0 0.58 0.28 0 
0.6 0.28 0 0.62 0.28 0 0.64 0.28 0 
0.66 0.28 0 0.68 0.28 0 0.7 0.28 0 
0.72 0.28 0 0.74 0.28 0 0.76 0.28 0 
0.78 0.28 0 0.8 0.28 0 0.82 0.28 0 
0.84 0.28 0 0.86 0.28 0 0.88 0.28 0 
0.9 0.28 0 0.92 0.28 0 0.94 0.28 0 
0.96 0.28 0 0.98 0.28 0 1 0.28 0 
0 0.3 0 0.02 0.3 0 0.04 0.3 0 
0.06 0.3 0 0.08 0.3 0 0.1 0.3 0 
0.12 0.3 0 0.14 0.3 0 0.16 0.3 0 
0.18 0.3 0 0.2 0.3 0 0.22 0.3 0 
0.24 0.3 0 0.26 0.3 0 0.28 0.3 0 
0.3 0.3 0 0.32 0.3 0 0.34 0.3 0 
0.36 0.3 0 0.38 0.3 0 0.4 0.3 0 
0.42 0.3 0 0.44 0.3 0 0.46 0.3 0 
0.48 0.3 0 0.5 0.3 0 0.52 0.3 0 
0.54 0.3 0 0.56 0.3 0 0.58 0.3 0 
0.6 0.3 0 0.62 0.3 0 0.64 0.3 0 
0.66 0.3 0 0.68 0.3 0 0.7 0.3 0 
0.72 0.3 0 0.74 0.3 0 0.76 0.3 0 
0.78 0.3 0 0.8 0.3 0 0.82 0.3 0 
0.84 0.3 0 0.86 0.3 0 0.88 0.3 0 
0.9 0.3 0 0.92 0.3 0 0.94 0.3 0 
0.96 0.3 0 0.98 0.3 0 1 0.3 0 
0 0.32 0 0.02 0.32 0 0.04 0.32 0 
0.06 0.32 0 0.08 0.32 0 0.1 0.32 0 
0.12 0.32 0 0.14 0.32 0 0.16 0.32 0 
0.18 0.32 0 0.2 0.32 0 0.22 0.32 0 
0.24 0.32 0 0.26 0.32 0 0.28 0.32 0 
0.3 0.32 0 0.32 0.32 0 0.34 0.32 0 
0.36 0.32 0 0.38 0.32 0 0.4 0.32 0 
0.42 0.32 0 0.44 0.32 0 0.46 0.32 0 
0.48 0.32 0 0.5 0.32 0 0.52 0.32 0 
0.54 0.32 0 0.56 0.32 0 0.58 0.32 0 
[...]
CELL_DATA 2500
FIELD FieldData 2
pressure 1 2500 double
-0.0059843853383 -0.0059786246353 -0.005997486711 -0.0060445194685 -0.0061171648187 -0.0062117716417 -0.0063257133297 -0.0064575896378 -0.0066071967303 
-0.0067747326157 -0.0069620592716 -0.0071692160843 -0.0073963719864 -0.0076427009529 -0.0079047051689 -0.0081770718353 -0.0084520859693 -0.0087197358181 
-0.008967850033 -0.0091823330427 -0.0093475263907 -0.0094467054058 -0.0094627860361 -0.0093792601195 -0.0091812576665 -0.0088566823012 -0.0083973938299 
-0.0078004443138 -0.0070693929778 -0.0062158965937 -0.0052615942301 -0.0042592767448 -0.0032466274003 -0.0022718181278 -0.0013893703556 -0.0006555788378 
-0.0001223767865 0.00017039069772 0.00020354571799 -1.3495355156e-05 -0.00041877489481 -0.00094049802861 -0.0014963578201 -0.0020067024454 -0.002416727087 
-0.0027115761768 -0.0028984945335 -0.0029925447799 -0.0030106818072 -0.0029768100189 -0.0059887883385 -0.0059817273703 -0.0060010942221 -0.0060470012624 
-0.0061167481619 -0.0062066744471 -0.0063139993714 -0.0064370937543 -0.0065761823474 -0.006730989015 -0.0069059230427 -0.00710065194 -0.0073159380991 
-0.0075511038183 -0.0078034170137 -0.0080681421097 -0.0083383831323 -0.0086048985699 -0.0088560705143 -0.0090780141145 -0.0092548875017 -0.0093695027288 
-0.0094042142737 -0.0093419465659 -0.0091672795813 -0.008867562457 -0.0084340042654 -0.0078626632075 -0.0071553315057 -0.0063203764863 -0.0054108660599 
-0.004441843396 -0.0034574985791 -0.0025073416961 -0.0016455370644 -0.00092740892221 -0.00040364898729 -0.00011269158862 -7.1983880473e-05 -0.00026952461307 
-0.00065840005076 -0.0011333804846 -0.0016391724461 -0.0020998299364 -0.0024625698242 -0.0027179434736 -0.002877588919 -0.0029594111795 -0.0029790507963 
-0.0029442816247 -0.0059652970979 -0.0059585687584 -0.0059810243934 -0.0060297193866 -0.0060998089683 -0.0061864979728 -0.0062876542843 -0.0064005275197 
-0.0065285367319 -0.0066731297845 -0.0068378880242 -0.0070250089427 -0.0072358891337 -0.0074704480765 -0.0077267546915 -0.0080008032508 -0.0082860973991 
-0.0085734203395 -0.0088507131532 -0.0091032052867 -0.0093139216849 -0.0094645180623 -0.009536261998 -0.0095111065536 -0.0093727861812 -0.009107860986 
-0.0087066754919 -0.0081640503184 -0.007479065179 -0.0066874447307 -0.0058044588525 -0.0048556663811 -0.003884200681 -0.0029394339307 -0.0020753529592 
-0.0013471040663 -0.00080548089777 -0.0004895253939 -0.00041785424032 -0.00058002336323 -0.00093048279093 -0.0013891072225 -0.0018622070932 -0.0022943309839 
-0.0026236807519 -0.0028363587264 -0.0029599095331 -0.0030165399267 -0.0030230948279 -0.0029800048626 -0.0059088684443 -0.0059086516311 -0.0059383879193 
-0.005992828949 -0.0060648622838 -0.0061498160619 -0.006244796621 -0.0063510306048 -0.0064721572087 -0.0066124939938 -0.0067767348045 -0.0069686829698 
-0.0071907469921 -0.0074436332366 -0.0077259839309 -0.0080337762516 -0.0083599601325 -0.0086941617971 -0.0090226795614 -0.0093289336444 -0.0095942512089 
-0.0097988054575 -0.0099226957642 -0.0099470314939 -0.0098549604157 -0.0096326864429 -0.009270451714 -0.0087635664601 -0.0081140042137 -0.007358845236 
-0.0064976570417 -0.0055630463502 -0.0045959451097 -0.0036442822354 -0.002760990127 -0.0020006165579 -0.0014141365617 -0.0010419637224 -0.00090567286274 
-0.00099974472214 -0.0012859044766 -0.0016941842831 -0.0021355975524 -0.0025374923389 -0.0028502667321 -0.0030341412572 -0.0031261594589 -0.0031570511216 
-0.0031487966107 -0.0031040974249 -0.0058197975277 -0.0058322634433 -0.0058726882154 -0.0059338137715 -0.0060089519543 -0.0060940563789 -0.0061879770956 
-0.0062942523186 -0.0064187105982 -0.0065679066443 -0.0067481362152 -0.0069644415609 -0.00722010983 -0.0075162309069 -0.0078509877721 -0.0082192255963 
-0.0086120638939 -0.0090168287761 -0.0094174673195 -0.0097953168744 -0.010129988352 -0.010400447475 -0.01058608693 -0.010667688715 -0.010628430401 
-0.010454873991 -0.010137827112 -0.0096730839229 -0.0090730550702 -0.0083473817085 -0.0075084981591 -0.0065861424502 -0.0056184471836 -0.0046508166518 
-0.0037340557595 -0.0029212687773 -0.0022631738526 -0.0018017672415 -0.0015627481177 -0.0015478859515 -0.001729556436 -0.0020507880874 -0.0024340927455 
-0.0027993022047 -0.0030776167868 -0.0032610496956 -0.0033373822834 -0.0033549854671 -0.003340448652 -0.0033026309144 -0.0057012668532 -0.0057310706694 
-0.0057833652411 -0.0058524254685 -0.0059330587723 -0.006022635487 -0.0061236041764 -0.0062418532299 -0.0063852362991 -0.0065620896658 -0.0067799007229 
-0.0070444880048 -0.007359328492 -0.0077246951951 -0.0081372018975 -0.0085893766281 -0.0090695940688 -0.0095624798738 -0.010049677674 -0.010510680623 
-0.01092391487 -0.011267761435 -0.011521460403 -0.011666082128 -0.011685473182 -0.011567105299 -0.011302942689 -0.010890302103 -0.010340487096 
-0.0096497713321 -0.0088363698911 -0.0079270474918 -0.0069565713746 -0.0059668750804 -0.0050055364903 -0.0041231885788 -0.0033695681432 -0.0027880833738 
-0.0024091898258 -0.0022434709782 -0.0022761698091 -0.0024656519957 -0.0027481252493 -0.003049287223 -0.0033015051308 -0.0034684439612 -0.0035552211321 
-0.0035810649484 -0.0035742583324 -0.0035504038841 -0.0055604779731 -0.005610478704 -0.0056756494813 -0.0057534040999 -0.0058426972395 -0.0059449149408 
-0.0060651284289 -0.0062112609669 -0.0063927576968 -0.0066189608686 -0.0068979023254 -0.0072353446777 -0.0076336536605 -0.0080912451897 -0.0086021234492 
-0.0091558206701 -0.0097378238553 -0.010330339816 -0.010913089254 -0.011464389374 -0.011962107861 -0.012384521842 -0.012711253575 -0.012924114946 
-0.013007879472 -0.012951113648 -0.012747048632 -0.012394538617 -0.011896203443 -0.01124684146 -0.010463554621 -0.009570230103 -0.0085977810533 
-0.0075837840006 -0.0065714779852 -0.00560790057 -0.004740875341 -0.0040146882547 -0.003464573012 -0.0031106072009 -0.002952274371 -0.0029654856659 
-0.0031039810503 -0.00330655743 -0.0035110416411 -0.0036744004445 -0.0037764317274 -0.0038189753065 -0.0038333152477 -0.0038283121015 -0.0054103799381 
-0.0054819344298 -0.0055586235906 -0.0056475906543 -0.0057525268321 -0.0058783334781 -0.0060323484517 -0.0062240372197 -0.0064636352063 -0.006760738609 
-0.0071230721559 -0.0075550225154 -0.0080568749596 -0.0086242615221 -0.009248052259 -0.0099147985883 -0.010607500496 -0.011306361822 -0.011989883519 
-0.012635742763 -0.013221638282 -0.013726196971 -0.014129712405 -0.014414829709 -0.014567305008 -0.014576724599 -0.014437288286 -0.014148795603 
-0.013705376973 -0.013102211592 -0.012354172965 -0.011481774381 -0.010511446588 -0.0094755343215 -0.0084118982802 -0.0073628753326 -0.0063733060678 
-0.0054874230386 -0.0047445667974 -0.004174066371 -0.0037900735005 -0.003587575965 -0.0035410731335 -0.0036073635891 -0.0037335616945 -0.0038699076191 
-0.0039815833349 -0.0040674255829 -0.0041138975867 -0.0041303931068 -0.0052703097574 -0.0053607638768 -0.0054507287156 -0.0055556212853 -0.0056847445364 
-0.0058460582051 -0.0060486608164 -0.0063027885508 -0.0066187428195 -0.0070056306535 -0.0074695855005 -0.0080127170378 -0.0086323945711 -0.0093210146295 
-0.010066390424 -0.010852516673 -0.01166027822 -0.01246853993 -0.01325498925 -0.013996979649 -0.014672415574 -0.015260438849 -0.015742047222 
-0.016100781085 -0.016323333773 -0.016400163571 -0.016326300675 -0.016102180247 -0.015715737696 -0.015162614861 -0.014455229802 -0.013610310461 
-0.012649266169 -0.011598549274 -0.010489828038 -0.0093597424406 -0.0082489664579 -0.0072003315063 -0.0062558822187 -0.0054529628119 -0.0048196994382 
-0.0043705645613 -0.0041029455792 -0.0039958119695 -0.0040117515122 -0.0041038331502 -0.0042281401418 -0.0043463846147 -0.004424311366 -0.0044631491657 
-0.0051644800549 -0.0052727812758 -0.005377387854 -0.0055035213151 -0.0056653489716 -0.0058732682426 -0.006137411962 -0.0064681199774 -0.0068752001516 
-0.0073660745808 -0.0079444606973 -0.0086094528817 -0.0093550865734 -0.010170594208 -0.01104113169 -0.011948415358 -0.012871789802 -0.013789063979 
-0.014677359659 -0.015513994183 -0.01627717041 -0.016946560768 -0.017503962014 -0.017933843675 -0.018223843387 -0.018365425926 -0.018354441261 
-0.018191667193 -0.017862276601 -0.017361805611 -0.016700158199 -0.015890111045 -0.014947857324 -0.01389365547 -0.0127524709 -0.011554407885 
-0.0103347033 -0.0091330632029 -0.0079921624227 -0.0069551834052 -0.0060623779953 -0.005346803819 -0.0048295168196 -0.0045147165955 -0.0043857767876 
-0.0044040546675 -0.0045137972353 -0.0046532259479 -0.0047748886293 -0.0048393053571 -0.0051212204375 -0.0052449119383 -0.0053658596566 -0.0055181302295 
-0.0057198941867 -0.0059832292209 -0.0063186907711 -0.0067363498644 -0.0072444525144 -0.0078479986147 -0.0085476717688 -0.0093391572185 -0.010213194561 
-0.011156229034 -0.012150923842 -0.013177186274 -0.014213005101 -0.015235301634 -0.016220841316 -0.01714696122 -0.017992151463 -0.018736742737 
-0.019363439385 -0.019857771275 -0.020208679518 -0.020408847435 -0.020454964905 -0.020348015155 -0.020073289585 -0.019626222185 -0.019014247602 
-0.018246355001 -0.017333710094 -0.016290481474 -0.015134752871 -0.013889424891 -0.01258301323 -0.011250165108 -0.0099316617097 -0.0086736059807 
-0.0075254648657 -0.0065366075832 -0.005750964324 -0.0051995361003 -0.0048910216095 -0.0048024905568 -0.0048759285294 -0.0050300520667 -0.005187776873 
-0.0052771438364 -0.0051659153194 -0.0053023592836 -0.0054409391872 -0.0056230281046 -0.0058697610759 -0.0061942513693 -0.0066072272769 -0.0071175885037 
-0.0077313597319 -0.0084506431049 -0.0092727254347 -0.010189895744 -0.011189985096 -0.01225670831 -0.013370613457 -0.014509913374 -0.015651328174 
-0.016771044619 -0.017845503835 -0.018852003462 -0.019769478541 -0.020579069627 -0.021264597975 -0.021813172703 -0.02221534784 -0.022465201094 
-0.022560332627 -0.022501705538 -0.02227682015 -0.021881704726 -0.021321567572 -0.020602076715 -0.019729957934 -0.018713744881 -0.017564731456 
-0.01629819365 -0.014934850655 -0.013502439879 -0.012037178972 -0.010584710062 -0.0091999428273 -0.0079450121072 -0.006884328475 -0.0060756190835 
-0.0055563213027 -0.00532669476 -0.0053363958837 -0.0054897351877 -0.0056757366731 -0.0057912665061 -0.0053188057131 -0.0054649924375 -0.0056216400781 
-0.005835503606 -0.0061296893459 -0.0065180496717 -0.0070107518934 -0.0076149142596 -0.0083340082093 -0.0091669178142 -0.010107550408 -0.011145224615 
-0.012264847189 -0.013447715081 -0.014672345248 -0.015915278932 -0.017152085665 -0.018358235091 -0.019509729154 -0.020584010937 -0.021560624478 
-0.022421773126 -0.023153004946 -0.023743318322 -0.024185122042 -0.024474046302 -0.024608482458 -0.02458923403 -0.024407421293 -0.024060686783 
-0.023552462584 -0.022885857468 -0.022063952181 -0.021090321052 -0.019969915622 -0.018710411026 -0.017324102459 -0.015830339392 -0.014258292941 
-0.012649621149 -0.011060327582 -0.00956070405 -0.0082317451216 -0.0071560465526 -0.0064014031895 -0.0059972974918 -0.0059104076645 -0.0060374622363 
-0.0062359976265 -0.0063908291778 -0.0055924086089 -0.0057450063162 -0.0059191303908 -0.0061649285171 -0.0065067979274 -0.0069586556571 -0.0075294945739 
-0.0082244205793 -0.0090440897655 -0.0099842163086 -0.011035793416 -0.012185147812 -0.0134145251 -0.014702914439 -0.016026780781 -0.017361094571 
-0.018680303478 -0.019958993665 -0.021172937945 -0.02229989612 -0.023320293501 -0.024218043557 -0.024980694005 -0.025599363705 -0.02606845106 
-0.026385015409 -0.026548202127 -0.026558844206 -0.02641226951 -0.026108726127 -0.025650477088 -0.025038825512 -0.0242740991 -0.023355894472 
-0.022283703007 -0.021058179837 -0.019683235366 -0.018168996917 -0.016535565484 -0.014817260813 -0.013066618155 -0.011356788688 -0.0097802256555 
-0.0084408005836 -0.007436321605 -0.0068300429212 -0.0066158868796 -0.0066969586219 -0.0069123440934 -0.0070966832442 -0.00599043757 -0.0061459724053 
-0.0063360410588 -0.0066125256751 -0.0070002196448 -0.00751238484 -0.0081566077513 -0.0089357860411 -0.0098478354016 -0.010885784608 -0.012037758674 
-0.013287310505 -0.014614215177 -0.015995104292 -0.017404501609 -0.018815881047 -0.020202364614 -0.021537893019 -0.022798203292 -0.023961643379 
-0.025010193046 -0.025929712262 -0.026709916458 -0.027344111507 -0.027828487614 -0.028161463265 -0.028343152738 -0.028374655663 -0.028255579391 
-0.027989202072 -0.027577075071 -0.027019447169 -0.026314932205 -0.025460359774 -0.024451089216 -0.023282011759 -0.021949439246 -0.020454176536 
-0.018805930887 -0.017028889882 -0.015167800844 -0.013293124577 -0.011502770078 -0.0099167749116 -0.0086605769543 -0.0078335490863 -0.0074651120169 
-0.0074764468593 -0.0076920700274 -0.0079094532154 -0.0065080704708 -0.0066631053972 -0.0068670112768 -0.0071717937143 -0.0076016162959 -0.0081686971544 
-0.0088790544974 -0.0097334401987 -0.010727501123 -0.011851737152 -0.013091584381 -0.014428111668 -0.015838571495 -0.017297390242 -0.018777293957 
-0.02025004888 -0.021687711015 -0.023063819837 -0.024354332097 -0.025538898967 -0.026601263444 -0.027529328207 -0.028314995416 -0.028953466229 
-0.029442569918 -0.029782236137 -0.029973618842 -0.030018502041 -0.029920290495 -0.029684733648 -0.029313143091 -0.02880545325 -0.028159588066 
-0.027371057763 -0.026432845406 -0.025335811988 -0.024070097537 -0.022627950086 -0.021008321371 -0.019223360332 -0.017306358941 -0.015319756246 
-0.013360491551 -0.011558425543 -0.010062187926 -0.0090069546698 -0.0084632758287 -0.0083816379857 -0.0085820892647 -0.008830083421 -0.007133096715 
-0.0072845110178 -0.0074998406493 -0.0078295482657 -0.0082964394151 -0.0089114528511 -0.0096790233417 -0.010598166062 -0.01166252301 -0.012860222452 
-0.014174368924 -0.015583545849 -0.017062681348 -0.018584222411 -0.02011891865 -0.021637092961 -0.023110069664 -0.02451120892 -0.025817461474 
-0.027009972076 -0.028074297631 -0.029000381379 -0.029781958889 -0.030415915236 -0.03090181341 -0.031240939693 -0.031435701323 -0.031488722282 
-0.031406152444 -0.031195152156 -0.030857175902 -0.03039245474 -0.029799329985 -0.029073498525 -0.02820733485 -0.027189701793 -0.026006611497 
-0.024643356349 -0.023088815764 -0.02134235888 -0.019423205408 -0.017381107972 -0.01530564808 -0.013329379002 -0.011617949441 -0.010339425099 
-0.009608274823 -0.0094139944606 -0.0095841355625 -0.0098567165088 -0.0078476890304 -0.0079928939889 -0.0082169397467 -0.0085674785252 -0.0090654964572 
-0.0097204892982 -0.010535583982 -0.011508379909 -0.012630662515 -0.013888548563 -0.015262913303 -0.016730072462 -0.018262946312 -0.019831893887 
-0.021405943237 -0.022954422099 -0.024448097844 -0.025860985455 -0.027171219555 -0.028361468093 -0.029419079962 -0.03033569604 -0.031106638195 
-0.031730578877 -0.032208496944 -0.032543089444 -0.032737788887 -0.032795866969 -0.032725110472 -0.032532736919 -0.032220653255 -0.031790038726 
-0.031240524447 -0.03056917685 -0.029769470584 -0.028830371145 -0.027736087941 -0.02646728025 -0.02500453022 -0.023334955844 -0.021462369452 
-0.019420264227 -0.017285089697 -0.015184773733 -0.013294569173 -0.011810214543 -0.010889973396 -0.010569777428 -0.01069766921 -0.010992992478 
-0.0086304334349 -0.0087672426591 -0.0089970346266 -0.0093638714456 -0.0098865776627 -0.010573276661 -0.011426073783 -0.012441283663 -0.013609131391 
-0.014913935864 -0.016334557513 -0.017845434573 -0.019417473216 -0.021019181794 -0.022618411163 -0.024183640737 -0.025685950652 -0.027100232873 
-0.028405812494 -0.029586840792 -0.03063218735 -0.031534891874 -0.032292069858 -0.032903767698 -0.03337236424 -0.033701488003 -0.033895138165 
-0.033957003231 -0.033895241259 -0.033716125559 -0.033422323723 -0.033016275008 -0.032499434041 -0.03187118135 -0.031127375646 -0.03025890307 
-0.029250620154 -0.028081304624 -0.026725815452 -0.025160777761 -0.023374771999 -0.021382953686 -0.019243999107 -0.017074295727 -0.015050634287 
-0.013389314348 -0.012289279227 -0.011836970798 -0.011912014242 -0.012222085671 -0.0094580844971 -0.0095845459992 -0.0098168908073 -0.010195204743 
-0.010736055422 -0.011446357318 -0.012327262913 -0.01337397755 -0.014575435836 -0.015914362283 -0.01736801026 -0.018909063632 -0.020506623109 
-0.022127939552 -0.023739870366 -0.025310895255 -0.026812707113 -0.028221039978 -0.029516374617 -0.030684148147 -0.031714389003 -0.032601901639 
-0.033345114712 -0.033945457653 -0.034406136646 -0.034731131075 -0.034924508672 -0.034989932206 -0.03493515171 -0.034764853692 -0.034482482406 
-0.034091883277 -0.03359662153 -0.032998779569 -0.032297439704 -0.031486881064 -0.030554661096 -0.029480395059 -0.028236344483 -0.026791490358 
-0.025120876807 -0.023220971941 -0.021129600862 -0.018945656235 -0.01683933726 -0.015039008883 -0.013778437925 -0.013195150246 -0.013209476073 
-0.013526705552 -0.010307112565 -0.010421303721 -0.010652738343 -0.011037596404 -0.011590297474 -0.012316510214 -0.013216445072 -0.014284412113 
-0.015508226735 -0.016869383554 -0.018343780661 -0.019902518727 -0.02151348708 -0.023142967636 -0.024757583616 -0.026326234761 -0.027821156455 
-0.029218918942 -0.030500988632 -0.031653697952 -0.032668713954 -0.033542111569 -0.0342737073 -0.034865741237 -0.035321630954 -0.035645139121 
-0.035839857681 -0.035909229628 -0.035860081265 -0.0356951252 -0.035418566247 -0.035035606056 -0.034551828152 -0.033972147605 -0.033299262771 
-0.032531555621 -0.031660777346 -0.030669784129 -0.02953143749 -0.028210668108 -0.026672064658 -0.024894801056 -0.02289453655 -0.020748106622 
-0.018611577169 -0.016716232425 -0.015322667317 -0.014616778102 -0.014566056928 -0.014883486019 -0.011155051554 -0.011254652197 -0.011481455232 
-0.011868080362 -0.012426761661 -0.013161771299 -0.01407240485 -0.015152161306 -0.016388020019 -0.017760560172 -0.019244472353 -0.020809828119 
-0.022423723173 -0.024052107301 -0.02566192665 -0.027222450601 -0.028706464129 -0.030091200394 -0.031358750736 -0.032496818611 -0.033498301677 
-0.034360610375 -0.035084454806 -0.035672277051 -0.036127194848 -0.036452235983 -0.03665028054 -0.036724108939 -0.036679696694 -0.036517579298 
-0.0362425797 -0.03586107629 -0.035380536751 -0.034808516932 -0.034151113936 -0.03341105487 -0.032585085851 -0.031661005987 -0.03061521636 
-0.029412475265 -0.028010868472 -0.026375132675 -0.024499282745 -0.022435329573 -0.020318898504 -0.018375190385 -0.016882253097 -0.016068765949 
-0.01595267167 -0.016264484424 -0.011981907254 -0.012062850673 -0.012281546879 -0.012665521768 -0.013224882014 -0.013962285244 -0.014876047346 
-0.015959011691 -0.017197584398 -0.018571593785 -0.020055001796 -0.021617362869 -0.023225524657 -0.024845773698 -0.026445422035 -0.027994085444 
-0.029464950054 -0.030835618532 -0.032089165639 -0.033214429322 -0.0342054816 -0.035060736934 -0.035781162126 -0.036369000098 -0.036826628943 
-0.037156152035 -0.037359261276 -0.037437973559 -0.03739769626 -0.037236651666 -0.036960184038 -0.036575718011 -0.036092296432 -0.035519619411 
-0.034866849003 -0.034140746053 -0.033343210472 -0.032468074809 -0.031497473208 -0.030399427579 -0.029129810404 -0.027642893421 -0.025913287327 
-0.023967424457 -0.02191596286 -0.019969917382 -0.018414846852 -0.017514311174 -0.017336674754 -0.017638629227 -0.0127690874 -0.012828393687 
-0.0130338546 -0.013411327807 -0.013966742544 -0.014700781595 -0.015610867154 -0.016689247898 -0.017921964594 -0.019288478553 -0.02076255402 
-0.022313756067 -0.023909398767 -0.025516288519 -0.02710204038 -0.028636546417 -0.030093173229 -0.031450087007 -0.032691310554 -0.033806610116 
-0.034791052883 -0.035643349383 -0.036364424262 -0.036955954445 -0.037419463769 -0.03775574869 -0.037965346835 -0.038049102731 -0.038012409708 
-0.037851207724 -0.037571306394 -0.037180962756 -0.03669038813 -0.036111053075 -0.035454552885 -0.034731202797 -0.033947880922 -0.033104646775 
-0.032190531496 -0.031179495242 -0.030029220871 -0.028688064814 -0.027114952208 -0.025312031872 -0.0233625421 -0.021456678647 -0.019877775768 
-0.01891479358 -0.018683368565 -0.018973008586 -0.013494422076 -0.013543385181 -0.013725581001 -0.014089788426 -0.014637483452 -0.015362938825 