# vtk DataFile Version 4.1
vtk output
ASCII
DATASET STRUCTURED_GRID
DIMENSIONS 51 51 1
POINTS 2601 float
0 0 0 0.02 0 0 0.04 0 0 
0.06 0 0 0.08 0 0 0.1 0 0 
0.12 0 0 0.14 0 0 0.16 0 0 
0.18 0 0 0.2 0 0 0.22 0 0 
0.24 0 0 0.26 0 0 0.28 0 0 
0.3 0 0 0.32 0 0 0.34 0 0 
0.36 0 0 0.38 0 0 0.4 0 0 
0.42 0 0 0.44 0 0 0.46 0 0 
0.48 0 0 0.5 0 0 0.52 0 0 
0.54 0 0 0.56 0 0 0.58 0 0 
0.6 0 0 0.62 0 0 0.64 0 0 
0.66 0 0 0.68 0 0 0.7 0 0 
0.72 0 0 0.74 0 0 0.76 0 0 
0.78 0 0 0.8 0 0 0.82 0 0 
0.84 0 0 0.86 0 0 0.88 0 0 
0.9 0 0 0.92 0 0 0.94 0 0 
0.96 0 0 0.98 0 0 1 0 0 
0 0.02 0 0.02 0.02 0 0.04 0.02 0 
0.06 0.02 0 0.08 0.02 0 0.1 0.02 0 
0.12 0.02 0 0.14 0.02 0 0.16 0.02 0 
0.18 0.02 0 0.2 0.02 0 0.22 0.02 0 
0.24 0.02 0 0.26 0.02 0 0.28 0.02 0 
0.3 0.02 0 0.32 0.02 0 0.34 0.02 0 
0.36 0.02 0 0.38 0.02 0 0.4 0.02 0 
0.42 0.02 0 0.44 0.02 0 0.46 0.02 0 
0.48 0.02 0 0.5 0.02 0 0.52 0.02 0 
0.54 0.02 0 0.56 0.02 0 0.58 0.02 0 
0.6 0.02 0 0.62 0.02 0 0.64 0.02 0 
0.66 0.02 0 0.68 0.02 0 0.7 0.02 0 
0.72 0.02 0 0.74 0.02 0 0.76 0.02 0 
0.78 0.02 0 0.8 0.02 0 0.82 0.02 0 
0.84 0.02 0 0.86 0.02 0 0.88 0.02 0 
0.9 0.02 0 0.92 0.02 0 0.94 0.02 0 
0.96 0.02 0 0.98 0.02 0 1 0.02 0 
0 0.04 0 0.02 0.04 0 0.04 0.04 0 
0.06 0.04 0 0.08 0.04 0 0.1 0.04 0 
0.12 0.04 0 0.14 0.04 0 0.16 0.04 0 
0.18 0.04 0 0.2 0.04 0 0.22 0.04 0 
0.24 0.04 0 0.26 0.04 0 0.28 0.04 0 
0.3 0.04 0 0.32 0.04 0 0.34 0.04 0 
0.36 0.04 0 0.38 0.04 0 0.4 0.04 0 
0.42 0.04 0 0.44 0.04 0 0.46 0.04 0 
0.48 0.04 0 0.5 0.04 0 0.52 0.04 0 
0.54 0.04 0 0.56 0.04 0 0.58 0.04 0 
0.6 0.04 0 0.62 0.04 0 0.64 0.04 0 
0.66 0.04 0 0.68 0.04 0 0.7 0.04 0 
0.72 0.04 0 0.74 0.04 0 0.76 0.04 0 
0.78 0.04 0 0.8 0.04 0 0.82 0.04 0 
0.84 0.04 0 0.86 0.04 0 0.88 0.04 0 
0.9 0.04 0 0.92 0.04 0 0.94 0.04 0 
0.96 0.04 0 0.98 0.04 0 1 0.04 0 
0 0.06 0 0.02 0.06 0 0.04 0.06 0 
0.06 0.06 0 0.08 0.06 0 0.1 0.06 0 
0.12 0.06 0 0.14 0.06 0 0.16 0.06 0 
0.18 0.06 0 0.2 0.06 0 0.22 0.06 0 
0.24 0.06 0 0.26 0.06 0 0.28 0.06 0 
0.3 0.06 0 0.32 0.06 0 0.34 0.06 0 
0.36 0.06 0 0.38 0.06 0 0.4 0.06 0 
0.42 0.06 0 0.44 0.06 0 0.46 0.06 0 
0.48 0.06 0 0.5 0.06 0 0.52 0.06 0 
0.54 0.06 0 0.56 0.06 0 0.58 0.06 0 
0.6 0.06 0 0.62 0.06 0 0.64 0.06 0 
0.66 0.06 0 0.68 0.06 0 0.7 0.06 0 
0.72 0.06 0 0.74 0.06 0 0.76 0.06 0 
0.78 0.06 0 0.8 0.06 0 0.82 0.06 0 
0.84 0.06 0 0.86 0.06 0 0.88 0.06 0 
0.9 0.06 0 0.92 0.06 0 0.94 0.06 0 
0.96 0.06 0 0.98 0.06 0 1 0.06 0 
0 0.08 0 0.02 0.08 0 0.04 0.08 0 
0.06 0.08 0 0.08 0.08 0 0.1 0.08 0 
0.12 0.08 0 0.14 0.08 0 0.16 0.08 0 
0.18 0.08 0 0.2 0.08 0 0.22 0.08 0 
0.24 0.08 0 0.26 0.08 0 0.28 0.08 0 
0.3 0.08 0 0.32 0.08 0 0.34 0.08 0 
0.36 0.08 0 0.38 0.08 0 0.4 0.08 0 
0.42 0.08 0 0.44 0.08 0 0.46 0.08 0 
0.48 0.08 0 0.5 0.08 0 0.52 0.08 0 
0.54 0.08 0 0.56 0.08 0 0.58 0.08 0 
0.6 0.08 0 0.62 0.08 0 0.64 0.08 0 
0.66 0.08 0 0.68 0.08 0 0.7 0.08 0 
0.72 0.08 0 0.74 0.08 0 0.76 0.08 0 
0.78 0.08 0 0.8 0.08 0 0.82 0.08 0 
0.84 0.08 0 0.86 0.08 0 0.88 0.08 0 
0.9 0.08 0 0.92 0.08 0 0.94 0.08 0 
0.96 0.08 0 0.98 0.08 0 1 0.08 0 
0 0.1 0 0.02 0.1 0 0.04 0.1 0 
0.06 0.1 0 0.08 0.1 0 0.1 0.1 0 
0.12 0.1 0 0.14 0.1 0 0.16 0.1 0 
0.18 0.1 0 0.2 0.1 0 0.22 0.1 0 
0.24 0.1 0 0.26 0.1 0 0.28 0.1 0 
0.3 0.1 0 0.32 0.1 0 0.34 0.1 0 
0.36 0.1 0 0.38 0.1 0 0.4 0.1 0 
0.42 0.1 0 0.44 0.1 0 0.46 0.1 0 
0.48 0.1 0 0.5 0.1 0 0.52 0.1 0 
0.54 0.1 0 0.56 0.1 0 0.58 0.1 0 
0.6 0.1 0 0.62 0.1 0 0.64 0.1 0 
0.66 0.1 0 0.68 0.1 0 0.7 0.1 0 
0.72 0.1 0 0.74 0.1 0 0.76 0.1 0 
0.78 0.1 0 0.8 0.1 0 0.82 0.1 0 
0.84 0.1 0 0.86 0.1 0 0.88 0.1 0 
0.9 0.1 0 0.92 0.1 0 0.94 0.1 0 
0.96 0.1 0 0.98 0.1 0 1 0.1 0 
0 0.12 0 0.02 0.12 0 0.04 0.12 0 
0.06 0.12 0 0.08 0.12 0 0.1 0.12 0 
0.12 0.12 0 0.14 0.12 0 0.16 0.12 0 
0.18 0.12 0 0.2 0.12 0 0.22 0.12 0 
0.24 0.12 0 0.26 0.12 0 0.28 0.12 0 
0.3 0.12 0 0.32 0.12 0 0.34 0.12 0 
0.36 0.12 0 0.38 0.12 0 0.4 0.12 0 
0.42 0.12 0 0.44 0.12 0 0.46 0.12 0 
0.48 0.12 0 0.5 0.12 0 0.52 0.12 0 
0.54 0.12 0 0.56 0.12 0 0.58 0.12 0 
0.6 0.12 0 0.62 0.12 0 0.64 0.12 0 
0.66 0.12 0 0.68 0.12 0 0.7 0.12 0 
0.72 0.12 0 0.74 0.12 0 0.76 0.12 0 
0.78 0.12 0 0.8 0.12 0 0.82 0.12 0 
0.84 0.12 0 0.86 0.12 0 0.88 0.12 0 
0.9 0.12 0 0.92 0.12 0 0.94 0.12 0 
0.96 0.12 0 0.98 0.12 0 1 0.12 0 
0 0.14 0 0.02 0.14 0 0.04 0.14 0 
0.06 0.14 0 0.08 0.14 0 0.1 0.14 0 
0.12 0.14 0 0.14 0.14 0 0.16 0.14 0 
0.18 0.14 0 0.2 0.14 0 0.22 0.14 0 
0.24 0.14 0 0.26 0.14 0 0.28 0.14 0 
0.3 0.14 0 0.32 0.14 0 0.34 0.14 0 
0.36 0.14 0 0.38 0.14 0 0.4 0.14 0 
0.42 0.14 0 0.44 0.14 0 0.46 0.14 0 
0.48 0.14 0 0.5 0.14 0 0.52 0.14 0 
0.54 0.14 0 0.56 0.14 0 0.58 0.14 0 
0.6 0.14 0 0.62 0.14 0 0.64 0.14 0 
0.66 0.14 0 0.68 0.14 0 0.7 0.14 0 
0.72 0.14 0 0.74 0.14 0 0.76 0.14 0 
0.78 0.14 0 0.8 0.14 0 0.82 0.14 0 
0.84 0.14 0 0.86 0.14 0 0.88 0.14 0 
0.9 0.14 0 0.92 0.14 0 0.94 0.14 0 
0.96 0.14 0 0.98 0.14 0 1 0.14 0 
0 0.16 0 0.02 0.16 0 0.04 0.16 0 
0.06 0.16 0 0.08 0.16 0 0.1 0.16 0 
0.12 0.16 0 0.14 0.16 0 0.16 0.16 0 
0.18 0.16 0 0.2 0.16 0 0.22 0.16 0 
0.24 0.16 0 0.26 0.16 0 0.28 0.16 0 
0.3 0.16 0 0.32 0.16 0 0.34 0.16 0 
0.36 0.16 0 0.38 0.16 0 0.4 0.16 0 
0.42 0.16 0 0.44 0.16 0 0.46 0.16 0 
0.48 0.16 0 0.5 0.16 0 0.52 0.16 0 
0.54 0.16 0 0.56 0.16 0 0.58 0.16 0 
0.6 0.16 0 0.62 0.16 0 0.64 0.16 0 
0.66 0.16 0 0.68 0.16 0 0.7 0.16 0 
0.72 0.16 0 0.74 0.16 0 0.76 0.16 0 
0.78 0.16 0 0.8 0.16 0 0.82 0.16 0 
0.84 0.16 0 0.86 0.16 0 0.88 0.16 0 
0.9 0.16 0 0.92 0.16 0 0.94 0.16 0 
0.96 0.16 0 0.98 0.16 0 1 0.16 0 
0 0.18 0 0.02 0.18 0 0.04 0.18 0 
0.06 0.18 0 0.08 0.18 0 0.1 0.18 0 
0.12 0.18 0 0.14 0.18 0 0.16 0.18 0 
0.18 0.18 0 0.2 0.18 0 0.22 0.18 0 
0.24 0.18 0 0.26 0.18 0 0.28 0.18 0 
0.3 0.18 0 0.32 0.18 0 0.34 0.18 0 
0.36 0.18 0 0.38 0.18 0 0.4 0.18 0 
0.42 0.18 0 0.44 0.18 0 0.46 0.18 0 
0.48 0.18 0 0.5 0.18 0 0.52 0.18 0 
0.54 0.18 0 0.56 0.18 0 0.58 0.18 0 
0.6 0.18 0 0.62 0.18 0 0.64 0.18 0 
0.66 0.18 0 0.68 0.18 0 0.7 0.18 0 
0.72 0.18 0 0.74 0.18 0 0.76 0.18 0 
0.78 0.18 0 0.8 0.18 0 0.82 0.18 0 
0.84 0.18 0 0.86 0.18 0 0.88 0.18 0 
0.9 0.18 0 0.92 0.18 0 0.94 0.18 0 
0.96 0.18 0 0.98 0.18 0 1 0.18 0 
0 0.2 0 0.02 0.2 0 0.04 0.2 0 
0.06 0.2 0 0.08 0.2 0 0.1 0.2 0 
0.12 0.2 0 0.14 0.2 0 0.16 0.2 0 
0.18 0.2 0 0.2 0.2 0 0.22 0.2 0 
0.24 0.2 0 0.26 0.2 0 0.28 0.2 0 
0.3 0.2 0 0.32 0.2 0 0.34 0.2 0 
0.36 0.2 0 0.38 0.2 0 0.4 0.2 0 
0.42 0.2 0 0.44 0.2 0 0.46 0.2 0 
0.48 0.2 0 0.5 0.2 0 0.52 0.2 0 
0.54 0.2 0 0.56 0.2 0 0.58 0.2 0 
0.6 0.2 0 0.62 0.2 0 0.64 0.2 0 
0.66 0.2 0 0.68 0.2 0 0.7 0.2 0 
0.72 0.2 0 0.74 0.2 0 0.76 0.2 0 
0.78 0.2 0 0.8 0.2 0 0.82 0.2 0 
0.84 0.2 0 0.86 0.2 0 0.88 0.2 0 
0.9 0.2 0 0.92 0.2 0 0.94 0.2 0 
0.96 0.2 0 0.98 0.2 0 1 0.2 0 
0 0.22 0 0.02 0.22 0 0.04 0.22 0 
0.06 0.22 0 0.08 0.22 0 0.1 0.22 0 
0.12 0.22 0 0.14 0.22 0 0.16 0.22 0 
0.18 0.22 0 0.2 0.22 0 0.22 0.22 0 
0.24 0.22 0 0.26 0.22 0 0.28 0.22 0 
0.3 0.22 0 0.32 0.22 0 0.34 0.22 0 
0.36 0.22 0 0.38 0.22 0 0.4 0.22 0 
0.42 0.22 0 0.44 0.22 0 0.46 0.22 0 
0.48 0.22 0 0.5 0.22 0 0.52 0.22 0 
0.54 0.22 0 0.56 0.22 0 0.58 0.22 0 
0.6 0.22 0 0.62 0.22 0 0.64 0.22 0 
0.66 0.22 0 0.68 0.22 0 0.7 0.22 0 
0.72 0.22 0 0.74 0.22 0 0.76 0.22 0 
0.78 0.22 0 0.8 0.22 0 0.82 0.22 0 
0.84 0.22 0 0.86 0.22 0 0.88 0.22 0 
0.9 0.22 0 0.92 0.22 0 0.94 0.22 0 
0.96 0.22 0 0.98 0.22 0 1 0.22 0 
0 0.24 0 0.02 0.24 0 0.04 0.24 0 
0.06 0.24 0 0.08 0.24 0 0.1 0.24 0 
0.12 0.24 0 0.14 0.24 0 0.16 0.24 0 
0.18 0.24 0 0.2 0.24 0 0.22 0.24 0 
0.24 0.24 0 0.26 0.24 0 0.28 0.24 0 
0.3 0.24 0 0.32 0.24 0 0.34 0.24 0 
0.36 0.24 0 0.38 0.24 0 0.4 0.24 0 
0.42 0.24 0 0.44 0.24 0 0.46 0.24 0 
0.48 0.24 0 0.5 0.24 0 0.52 0.24 0 
0.54 0.24 0 0.56 0.24 0 0.58 0.24 0 
0.6 0.24 0 0.62 0.24 0 0.64 0.24 0 
0.66 0.24 0 0.68 0.24 0 0.7 0.24 0 
0.72 0.24 0 0.74 0.24 0 0.76 0.24 0 
0.78 0.24 0 0.8 0.24 0 0.82 0.24 0 
0.84 0.24 0 0.86 0.24 0 0.88 0.24 0 
0.9 0.24 0 0.92 0.24 0 0.94 0.24 0 
0.96 0.24 0 0.98 0.24 0 1 0.24 0 
0 0.26 0 0.02 0.26 0 0.04 0.26 0 
0.06 0.26 0 0.08 0.26 0 0.1 0.26 0 
0.12 0.26 0 0.14 0.26 0 0.16 0.26 0 
0.18 0.26 0 0.2 0.26 0 0.22 0.26 0 
0.24 0.26 0 0.26 0.26 0 0.28 0.26 0 
0.3 0.26 0 0.32 0.26 0 0.34 0.26 0 
0.36 0.26 0 0.38 0.26 0 0.4 0.26 0 
0.42 0.26 0 0.44 0.26 0 0.46 0.26 0 
0.48 0.26 0 0.5 0.26 0 0.52 0.26 0 
0.54 0.26 0 0.56 0.26 0 0.58 0.26 0 
0.6 0.26 0 0.62 0.26 0 0.64 0.26 0 
0.66 0.26 0 0.68 0.26 0 0.7 0.26 0 
0.72 0.26 0 0.74 0.26 0 0.76 0.26 0 
0.78 0.26 0 0.8 0.26 0 0.82 0.26 0 
0.84 0.26 0 0.86 0.26 0 0.88 0.26 0 
0.9 0.26 0 0.92 0.26 0 0.94 0.26 0 
0.96 0.26 0 0.98 0.26 0 1 0.26 0 
0 0.28 0 0.02 0.28 0 0.04 0.28 0 
0.06 0.28 0 0.08 0.28 0 0.1 0.28 0 
0.12 0.28 0 0.14 0.28 0 0.16 0.28 0 
0.18 0.28 0 0.2 0.28 0 0.22 0.28 0 
0.24 0.28 0 0.26 0.28 0 0.28 0.28 0 
0.3 0.28 0 0.32 0.28 0 0.34 0.28 0 
0.36 0.28 0 0.38 0.28 0 0.4 0.28 0 
0.42 0.28 0 0.44 0.28 0 0.46 0.28 0 
0.48 0.28 0 0.5 0.28 0 0.52 0.28 0 
0.54 0.28 0 0.56 0.28 0 0.58 0.28 0 
0.6 0.28 0 0.62 0.28 0 0.64 0.28 0 
0.66 0.28 0 0.68 0.28 0 0.7 0.28 0 
0.72 0.28 0 0.74 0.28 0 0.76 0.28 0 
0.78 0.28 0 0.8 0.28 0 0.82 0.28 0 
0.84 0.28 0 0.86 0.28 0 0.88 0.28 0 
0.9 0.28 0 0.92 0.28 0 0.94 0.28 0 
0.96 0.28 0 0.98 0.28 0 1 0.28 0 
0 0.3 0 0.02 0.3 0 0.04 0.3 0 
0.06 0.3 0 0.08 0.3 0 0.1 0.3 0 
0.12 0.3 0 0.14 0.3 0 0.16 0.3 0 
0.18 0.3 0 0.2 0.3 0 0.22 0.3 0 
0.24 0.3 0 0.26 0.3 0 0.28 0.3 0 
0.3 0.3 0 0.32 0.3 0 0.34 0.3 0 
0.36 0.3 0 0.38 0.3 0 0.4 0.3 0 
0.42 0.3 0 0.44 0.3 0 0.46 0.3 0 
0.48 0.3 0 0.5 0.3 0 0.52 0.3 0 
0.54 0.3 0 0.56 0.3 0 0.58 0.3 0 
0.6 0.3 0 0.62 0.3 0 0.64 0.3 0 
0.66 0.3 0 0.68 0.3 0 0.7 0.3 0 
0.72 0.3 0 0.74 0.3 0 0.76 0.3 0 
0.78 0.3 0 0.8 0.3 0 0.82 0.3 0 
0.84 0.3 0 0.86 0.3 0 0.88 0.3 0 
0.9 0.3 0 0.92 0.3 0 0.94 0.3 0 
0.96 0.3 0 0.98 0.3 0 1 0.3 0 
0 0.32 0 0.02 0.32 0 0.04 0.32 0 
0.06 0.32 0 0.08 0.32 0 0.1 0.32 0 
0.12 0.32 0 0.14 0.32 0 0.16 0.32 0 
0.18 0.32 0 0.2 0.32 0 0.22 0.32 0 
0.24 0.32 0 0.26 0.32 0 0.28 0.32 0 
0.3 0.32 0 0.32 0.32 0 0.34 0.32 0 
0.36 0.32 0 0.38 0.32 0 0.4 0.32 0 
0.42 0.32 0 0.44 0.32 0 0.46 0.32 0 
0.48 0.32 0 0.5 0.32 0 0.52 0.32 0 
0.54 0.32 0 0.56 0.32 0 0.58 0.32 0 
[...]
CELL_DATA 2500
FIELD FieldData 2
pressure 1 2500 double
-0.005875079818 -0.0058644589049 -0.0058840127792 -0.0059387710407 -0.0060243703756 -0.0061339356453 -0.006262023117 -0.0064056408986 -0.0065649745946 
-0.0067417217374 -0.0069399934021 -0.0071609119446 -0.0074046964232 -0.0076704731364 -0.0079538451057 -0.0082488777097 -0.0085474523576 -0.0088391668468 
-0.0091109976517 -0.0093475054713 -0.0095314340439 -0.009644421335 -0.0096681196673 -0.009585451289 -0.0093815760413 -0.0090447574183 -0.0085673343873 
-0.007946762462 -0.0071868629901 -0.0062995537776 -0.0053075970383 -0.0042657197184 -0.0032127813497 -0.0021989843845 -0.0012812554278 -0.00051850336214 
3.4794867095e-05 0.00033667973578 0.00036670870276 0.00013438770965 -0.00029395568257 -0.00084366761148 -0.0014278752234 -0.0019625298472 -0.0023900545068 
-0.0026957868732 -0.0028882671763 -0.0029841044075 -0.0030015494603 -0.0029656573517 -0.0058787716497 -0.0058700150337 -0.0058937425375 -0.0059490363266 
-0.0060306039918 -0.0061319900446 -0.0062489073955 -0.0063796833583 -0.0065265264096 -0.0066898088083 -0.006876522983 -0.0070858590463 -0.0073183798967 
-0.0075731060351 -0.0078470119579 -0.0081352126535 -0.0084304297129 -0.0087224860096 -0.0089984036671 -0.0092426840577 -0.009437844085 -0.009565536648 
-0.0096075983924 -0.009546820027 -0.0093678551714 -0.009058175822 -0.0086089490481 -0.008016050968 -0.0072811751635 -0.0064130097021 -0.0054678780672 
-0.0044596500482 -0.0034351220265 -0.002446106042 -0.0015492811985 -0.00080256668535 -0.00025910249204 4.0704582898e-05 7.8362206519e-05 -0.00013368719474 
-0.0005460543545 -0.0010462852431 -0.0015783548241 -0.0020609223854 -0.0024387374918 -0.0027027979751 -0.0028663998334 -0.0029492123211 -0.0029681373628 
-0.0029313036397 -0.0058550644203 -0.0058497459895 -0.0058788701841 -0.0059370254352 -0.0060167183113 -0.0061108213731 -0.0062180385279 -0.0063357507874 
-0.0064709326436 -0.0066247885568 -0.0068020090905 -0.0070044767491 -0.0072333835474 -0.0074887304907 -0.0077686511104 -0.008068786594 -0.00838165337 
-0.0086965690175 -0.0089997809664 -0.0092749143216 -0.0095039834814 -0.009668228427 -0.0097487272322 -0.0097273064753 -0.009587471108 -0.0093152974437 
-0.008900548246 -0.0083376153919 -0.0076251840071 -0.0068036102118 -0.0058841956646 -0.0048960877878 -0.0038844251427 -0.0029008685294 -0.0020018518753 
-0.0012449934762 -0.00068337886485 -0.00035786048714 -0.00028796516131 -0.00046275459179 -0.00083425216906 -0.0013177582175 -0.0018146753049 -0.0022673350013 
-0.0026095922002 -0.002827962651 -0.0029528906524 -0.0030086704539 -0.0030135583613 -0.0029680439639 -0.0057980467044 -0.0058014106547 -0.0058384603251 
-0.0059010660671 -0.0059802762413 -0.0060695692827 -0.0061688478029 -0.0062798414537 -0.0064084062423 -0.0065592608745 -0.006737171908 -0.0069460028628 
-0.0071884724795 -0.0074654720596 -0.007775319265 -0.0081129962037 -0.0084698584013 -0.0088336899369 -0.0091892082007 -0.009518964403 -0.009803949951 
-0.010024155015 -0.010159466954 -0.010190500132 -0.010099544838 -0.0098719199005 -0.0094972736698 -0.0089707858697 -0.0082953937613 -0.0075091854097 
-0.0066118859212 -0.0056382807232 -0.0046313689445 -0.0036412439714 -0.0027230750641 -0.0019336320276 -0.0013259573796 -0.00094213099325 -0.00080462148308 
-0.00090757662343 -0.001210757872 -0.0016405680016 -0.0021034041061 -0.0025234013804 -0.0028482700679 -0.0030357339634 -0.0031268555127 -0.0031550359338 
-0.0031440420746 -0.0030969004376 -0.0057059398907 -0.0057226759495 -0.0057699648441 -0.0058376359448 -0.0059176165491 -0.006006963663 -0.0061055070138 
-0.0062181414546 -0.0063518982028 -0.006513649615 -0.0067100910671 -0.0069468467194 -0.0072274785984 -0.0075527818884 -0.0079199106466 -0.008321983817 
-0.0087481834458 -0.0091842588203 -0.0096133587154 -0.010016535916 -0.010373246455 -0.010662208149 -0.010862135426 -0.010952702498 -0.010915992054 
-0.010737751551 -0.010408368007 -0.0099235993624 -0.0093001551939 -0.0085426970819 -0.007668173129 -0.0067076739025 -0.0057010284633 -0.0046954505032 
-0.0037436329029 -0.0029006206191 -0.0022190088003 -0.0017423758164 -0.001497378838 -0.0014857313826 -0.0016784311766 -0.0020157745175 -0.0024166185692 
-0.0027970712713 -0.0030848160093 -0.0032717043571 -0.0033461550304 -0.0033601836999 -0.0033424699649 -0.003302620023 -0.0055792438181 -0.0056129285952 
-0.0056706665941 -0.0057452710884 -0.0058317029923 -0.0059271649778 -0.0060352786988 -0.0061630397617 -0.0063189709557 -0.0065122058077 -0.0067511114125 
-0.0070419210304 -0.00738788533 -0.0077882212027 -0.0082376928355 -0.0087268731854 -0.009242599307 -0.0097687094716 -0.01028657064 -0.010775543613 
-0.01121375569 -0.011578769002 -0.011848575852 -0.012003044572 -0.012025098437 -0.011901767677 -0.011625263332 -0.01119378975 -0.010619436016 
-0.0098984528523 -0.0090508868818 -0.0081048956114 -0.0070965904471 -0.0060693424954 -0.0050723164618 -0.0041578544938 -0.0033774146792 -0.0027759450849 
-0.0023849632139 -0.0022153069605 -0.0022514069112 -0.0024496892202 -0.0027435391948 -0.0030554440357 -0.003314844247 -0.003484102852 -0.0035697396595 
-0.0035926990446 -0.0035832538477 -0.0035581139548 -0.0054229127172 -0.0054759815768 -0.0055464494686 -0.0056310055917 -0.005728422434 -0.0058401552669 
-0.0059719140946 -0.0061322322734 -0.0063315857786 -0.0065804909392 -0.0068875912377 -0.0072585288446 -0.0076946124492 -0.0081923554232 -0.0087438464197 
-0.0093371403763 -0.0099569566881 -0.010585235143 -0.011201537022 -0.011783781627 -0.012308904789 -0.012753848728 -0.013096980012 -0.013319142555 
-0.013404655999 -0.013342331782 -0.01312613129 -0.012755910349 -0.012233780416 -0.011555866379 -0.010740318982 -0.0098119644056 -0.0088027094122 
-0.0077512781632 -0.0067022531704 -0.0057041965094 -0.0048065383677 -0.0040550560966 -0.0034861006443 -0.0031202423393 -0.0029566396871 -0.0029700054692 
-0.0031121456182 -0.00331954003 -0.0035279181861 -0.0036932980316 -0.0037949195889 -0.0038354460883 -0.0038484888204 -0.0038431011782 -0.0052498864024 
-0.0053252875744 -0.0054080049029 -0.0055064971076 -0.005623762587 -0.0057643922744 -0.0059357946008 -0.006148316957 -0.0064134756905 -0.0067416513826 
-0.0071405682129 -0.0076135706533 -0.0081590463087 -0.0087707990415 -0.0094382915576 -0.010147352298 -0.010880765573 -0.011618520689 -0.012338571377 
-0.013017565344 -0.013631798145 -0.014158605433 -0.014577331871 -0.014870231668 -0.015023335533 -0.015026916432 -0.014876088784 -0.014571766223 
-0.014105828862 -0.01347597262 -0.012697517237 -0.011791543668 -0.010785197556 -0.0097117593229 -0.0086102785634 -0.0075244704529 -0.0065006163389 
-0.0055842890125 -0.0048159019249 -0.0042254285348 -0.0038271128984 -0.0036154443261 -0.0035639081858 -0.0036279848746 -0.0037534935074 -0.0038897043017 
-0.0040011850172 -0.0040876717301 -0.0041344837702 -0.0041514760383 -0.0050820894606 -0.0051775640297 -0.0052764498015 -0.0053950718255 -0.0055420209752 
-0.0057245247167 -0.0059519472976 -0.0062355895211 -0.0065865418777 -0.0070139577159 -0.0075229383396 -0.0081137053178 -0.008781878212 -0.0095185184689 
-0.010310788059 -0.011142540522 -0.011994385111 -0.012844499851 -0.01366945075 -0.014445098749 -0.015148037309 -0.015756515696 -0.016251236459 
-0.016616093611 -0.016838466159 -0.01690965799 -0.01682557734 -0.0165873981 -0.016180119029 -0.015602029504 -0.0148657765 -0.013988444311 
-0.012992029331 -0.011903829585 -0.010756554634 -0.0095879909342 -0.0084399806715 -0.0073564565975 -0.0063804136949 -0.0055499144851 -0.0048935196619 
-0.0044258378655 -0.0041441307157 -0.0040270715682 -0.0040368757107 -0.0041261657598 -0.0042504966302 -0.0043706412448 -0.0044503337888 -0.0044903678396 
-0.0049480126489 -0.0050641894201 -0.0051813019259 -0.0053260114543 -0.005511667607 -0.0057481142408 -0.0060459764184 -0.0064161289587 -0.0068682984436 
-0.007408809976 -0.0080394565111 -0.0087575940473 -0.0095559521771 -0.010423180578 -0.011344370208 -0.012300894163 -0.013271304282 -0.014232219126 
-0.015159151919 -0.016028090558 -0.016816420761 -0.017503616656 -0.018071935482 -0.018506603788 -0.018796108615 -0.018932679775 -0.018912685527 
-0.018737247669 -0.018388323325 -0.017864181219 -0.017174840272 -0.016333418589 -0.015356673392 -0.014265580071 -0.013085904554 -0.011848587963 
-0.010589702008 -0.0093497660192 -0.0081722365981 -0.0071010328505 -0.0061770983979 -0.0054341492809 -0.0048938957855 -0.0045612038796 -0.0044200378299 
-0.0044319584208 -0.0045405568185 -0.004682353879 -0.0048071412338 -0.0048733592903 -0.0048821672925 -0.0050166314912 -0.0051536449544 -0.005329275219 
-0.0055611333254 -0.005861142915 -0.0062399037768 -0.0067070596946 -0.007269554259 -0.00793031509 -0.0086881924332 -0.0095375108235 -0.010468427266 
-0.01146735751 -0.012516551521 -0.013595028415 -0.014679531162 -0.015745255586 -0.016767614614 -0.017723198132 -0.018590376921 -0.019350055023 
-0.019985809684 -0.020484072954 -0.020834503704 -0.021030186132 -0.021067989082 -0.020949008658 -0.020655514154 -0.020185658105 -0.019547065991 
-0.018749092948 -0.017803370878 -0.016724572239 -0.015531281843 -0.014246892228 -0.012900420331 -0.011527058463 -0.010168196783 -0.0088706323641 
-0.0076846557617 -0.0066606493325 -0.0058438027406 -0.0052666118431 -0.0049392915617 -0.0048398830766 -0.0049099359099 -0.005065856777 -0.0052279718829 
-0.0053197089524 -0.0049140760329 -0.0050635631944 -0.0052213127604 -0.0054312288343 -0.0057145538503 -0.0060840433786 -0.0065495044249 -0.0071181870037 
-0.0077937568275 -0.0085762385644 -0.0094613934597 -0.010440815718 -0.011502248081 -0.012628896041 -0.013800304924 -0.014993371272 -0.016182970199 
-0.017343905758 -0.018451923714 -0.019484247655 -0.020420489899 -0.021242795652 -0.02193596449 -0.02248782919 -0.022889325334 -0.02313463348 
-0.02322135387 -0.023150488049 -0.022907250932 -0.022490205655 -0.021904807455 -0.021157018579 -0.020253844483 -0.01920404938 -0.018019121005 
-0.01671453724 -0.015311266712 -0.013837370822 -0.012329488558 -0.010833833705 -0.0094061328223 -0.0081097033749 -0.007010618151 -0.006168747068 
-0.0056238827371 -0.0053781540031 -0.005381464361 -0.0055358892773 -0.0057265835838 -0.0058447676755 -0.0050663234706 -0.005227030439 -0.0054052906326 
-0.0056513118789 -0.0059884783657 -0.0064294149212 -0.0069822519009 -0.0076513694029 -0.0084377686719 -0.0093385201371 -0.010346586623 -0.011451030728 
-0.012636086909 -0.013881873968 -0.01516547949 -0.016461455076 -0.017743923251 -0.018987681221 -0.020168664707 -0.021265079536 -0.022257595187 
-0.02312946552 -0.023867018423 -0.024459676584 -0.024899957296 -0.025183482646 -0.025308672313 -0.025276525588 -0.025076893623 -0.024709440389 
-0.024177786931 -0.023485159784 -0.022634670818 -0.02162986781 -0.020475679807 -0.019179802838 -0.01775460598 -0.016219573298 -0.01460409839 
-0.012950228509 -0.011314662433 -0.0097688762683 -0.0083957107093 -0.0072803211542 -0.0064935383993 -0.0060676059866 -0.0059703272262 -0.0060964674577 
-0.0062988727469 -0.0064576393096 -0.0053522511072 -0.0055199341624 -0.0057177852814 -0.0059999399757 -0.0063903346531 -0.0069007247011 -0.0075370372086 
-0.0083014354724 -0.0091923816143 -0.010204261926 -0.011327534072 -0.012547618737 -0.013845312593 -0.015197982976 -0.016579916314 -0.017964497658 
-0.019325472424 -0.020637326463 -0.021876647863 -0.023022412812 -0.024056151265 -0.024962635842 -0.025729926996 -0.026349308916 -0.026815259145 
-0.027124949667 -0.027277791601 -0.027274997061 -0.027111604773 -0.026789058342 -0.026309642357 -0.025674549349 -0.024883920186 -0.023937165284 
-0.022833639264 -0.021573910668 -0.020161842646 -0.018607547928 -0.01693117159 -0.015167225893 -0.013368749253 -0.011609925069 -0.0099850061877 
-0.0086005854613 -0.0075579698311 -0.0069239913073 -0.0066947834396 -0.0067724165226 -0.006991430995 -0.0071801484549 -0.0057749072517 -0.0059456013529 
-0.006161521719 -0.0064778704078 -0.0069181586905 -0.0074926055081 -0.0082054550044 -0.0090570139537 -0.010043421752 -0.011156789268 -0.012384051431 
-0.013706953966 -0.015103352615 -0.016547450972 -0.018011933716 -0.019469464083 -0.020892968531 -0.022257191694 -0.023539137898 -0.02471829052 
-0.025777561061 -0.026703430114 -0.027485876866 -0.028118423009 -0.028597537117 -0.028922058186 -0.029092578251 -0.029110630366 -0.028976261237 
-0.028692988071 -0.02826218361 -0.027683797521 -0.026956128879 -0.026075738513 -0.025037777603 -0.023836983313 -0.022469550163 -0.020936182282 
-0.019246517034 -0.017424768785 -0.015515951021 -0.013591271107 -0.01175018573 -0.010115361099 -0.0088159612025 -0.0079556274628 -0.0075671506719 
-0.0075719236403 -0.0077902008643 -0.0080126176801 -0.0063279408325 -0.0064983502966 -0.0067298701732 -0.0070768647195 -0.0075614650927 -0.0081924948776 
-0.0089730872182 -0.0099018246005 -0.0109730071 -0.012175652737 -0.013492984149 -0.014903758378 -0.016382484 -0.017901356124 -0.019432070747 
-0.020946021223 -0.02241595606 -0.023816670767 -0.025125258371 -0.026322346108 -0.027392399132 -0.028323688238 -0.029108505035 -0.029742539689 
-0.030224263718 -0.030554240446 -0.030734169545 -0.030766149826 -0.030654475609 -0.03040428503 -0.030016554999 -0.029490821203 -0.028824616054 
-0.028013095783 -0.027048967559 -0.025922900831 -0.024624899545 -0.023147107288 -0.021488373066 -0.019660744799 -0.017697524636 -0.015661534257 
-0.013650862857 -0.011797707435 -0.010254427164 -0.0091609585594 -0.0085923014403 -0.0085005694343 -0.0087022636352 -0.0089558099626 -0.00699742492 
-0.0071644179477 -0.0074083298117 -0.0077811534224 -0.008303167634 -0.0089824193469 -0.0098209802174 -0.010816145932 -0.011959842495 -0.013237604681 
-0.014629770448 -0.016111814641 -0.017655921924 -0.019233147004 -0.020813589467 -0.022368021815 -0.023868921925 -0.02529073656 -0.026611387087 
-0.02781281183 -0.028881014742 -0.029806518248 -0.030583781001 -0.031210577407 -0.031687311164 -0.032015989878 -0.032199453153 -0.032240473171 
-0.032146287631 -0.031922883008 -0.031571323853 -0.031091364804 -0.03048083262 -0.029734977359 -0.028845834167 -0.027802030043 -0.02658946582 
-0.025193385454 -0.023602573419 -0.021816214885 -0.019853336529 -0.017763733254 -0.015637695427 -0.013609681794 -0.011848840574 -0.010528221506 
-0.0097676234511 -0.0095595996335 -0.0097292333664 -0.01000741764 -0.0077634119385 -0.0079239220584 -0.0081764933968 -0.0085695238857 -0.009121827518 
-0.0098406809592 -0.010727312787 -0.011777497906 -0.012980188918 -0.014318274907 -0.015769149016 -0.017305803815 -0.018899250283 -0.020518814813 
-0.022133577088 -0.023713800301 -0.025231214217 -0.026660717422 -0.027981254611 -0.029175986549 -0.030233007638 -0.031144902273 -0.03190814047 
-0.032522463911 -0.032989807665 -0.033313475346 -0.033497206028 -0.033544246822 -0.033463524527 -0.033260932299 -0.032937898213 -0.032494983932 
-0.031931214576 -0.031243093642 -0.030423623129 -0.029461499392 -0.028340831159 -0.027042239361 -0.025546255302 -0.023839851433 -0.021926586529 
-0.01983976717 -0.017656137867 -0.015504998229 -0.013564640988 -0.012035704373 -0.011082378654 -0.010745000633 -0.010870561742 -0.011171548768 
-0.0086018308851 -0.0087529785387 -0.0090100383164 -0.0094177301272 -0.0099934444282 -0.010743559129 -0.011668429659 -0.012761557879 -0.014009572702 
-0.015392979668 -0.016886747926 -0.018462751045 -0.020090389359 -0.021737675188 -0.023373039937 -0.024965701364 -0.026487431957 -0.027913864603 
-0.029224820051 -0.030405292359 -0.031445268902 -0.03233918359 -0.033085456595 -0.033685361431 -0.034142098849 -0.03445981819 -0.03464268272 
-0.034694317409 -0.034624074016 -0.034436886961 -0.034134829417 -0.03371967123 -0.033192098847 -0.032550729852 -0.031790847156 -0.030902932021 
-0.029871606016 -0.028675625543 -0.027289930146 -0.025691164214 -0.023867771713 -0.021834658825 -0.019650445002 -0.017432277023 -0.015359315809 
-0.013652381954 -0.012516645832 -0.012044127096 -0.012114955098 -0.012430370821 -0.00948660251 -0.0096255547945 -0.0098830248662 -0.01030030934 
-0.010893003579 -0.011666555443 -0.012619642885 -0.013743742391 -0.015023738716 -0.016438015867 -0.017960526695 -0.019561905491 -0.021210113919 
-0.022872470224 -0.024516230989 -0.026110266773 -0.027626824943 -0.029042070955 -0.03033731339 -0.031499218184 -0.032519403227 -0.033394208992 
-0.034123562459 -0.034709941179 -0.035157331419 -0.03547013895 -0.035652630176 -0.035708491054 -0.035646487816 -0.035470186521 -0.035182436793 
-0.034786234553 -0.034284180817 -0.033677457872 -0.032964291072 -0.032138265565 -0.03118659625 -0.030088878279 -0.028817599788 -0.027342069835 
-0.02563748365 -0.023700109821 -0.021567420042 -0.019338446496 -0.017184989229 -0.015339345709 -0.014041517288 -0.013435514203 -0.013443731366 
-0.013765699102 -0.010391413223 -0.010515466529 -0.010769701639 -0.011191925269 -0.011795804052 -0.012585110165 -0.013556549633 -0.014700309305 
-0.015999637711 -0.017432021619 -0.018970720384 -0.020585035118 -0.022242255691 -0.023908614986 -0.025550721488 -0.027137705327 -0.028642064225 
-0.030041047234 -0.031317369831 -0.032459065207 -0.033459538639 -0.034316588963 -0.035031308139 -0.035606995463 -0.036047791873 -0.036357968519 
-0.036541444605 -0.036601599789 -0.036546259375 -0.036377406972 -0.036098494832 -0.035713735073 -0.035227606641 -0.034643768349 -0.033963712117 
-0.033184923726 -0.032298613907 -0.031287582402 -0.030125131557 -0.028776830844 -0.02720770055 -0.025396860036 -0.023359478898 -0.021172039236 
-0.018991451774 -0.017052205064 -0.015620851269 -0.014890355853 -0.014831717847 -0.015153082211 -0.011291382158 -0.011397895998 -0.011645540066 
-0.012068541591 -0.012678118635 -0.013475583896 -0.01445625678 -0.015609123254 -0.016916633229 -0.018356138583 -0.019899928233 -0.021516703468 
-0.023172977169 -0.024834194009 -0.026467062273 -0.028040808439 -0.029528610088 -0.030908836052 -0.032165273531 -0.033287501215 -0.034270295363 
-0.035112570513 -0.035816338836 -0.036385063939 -0.036822681774 -0.037132902582 -0.037318897438 -0.037383565922 -0.037333888909 -0.037169948651 
-0.036895743169 -0.036516540593 -0.036038347467 -0.035467137331 -0.03480758563 -0.034061218287 -0.033224072968 -0.032283883844 -0.031217504272 
-0.029990466597 -0.028561599844 -0.02689588764 -0.024986932912 -0.022886113669 -0.020729252496 -0.018743943642 -0.017213646559 -0.016374334903 
-0.016248691096 -0.016563513343 -0.012165066349 -0.012249594257 -0.012487951679 -0.012907976403 -0.013517809395 -0.014316455457 -0.015298007524 
-0.016450610573 -0.017756932396 -0.019193918816 -0.020733393004 -0.022343726063 -0.023990723512 -0.025639839315 -0.027257895323 -0.028814482327 
-0.030283623471 -0.031644472936 -0.032882016259 -0.033987047053 -0.034955340383 -0.035786794775 -0.036483665197 -0.037049283921 -0.037487054923 
-0.037799779088 -0.037989696193 -0.038059118711 -0.038014370232 -0.037853560659 -0.037581122814 -0.037203051695 -0.036726663698 -0.036159917414 
-0.035510257455 -0.034783061472 -0.033979352837 -0.033092608643 -0.032105240605 -0.030986128355 -0.029692177212 -0.02817833367 -0.026419146312 
-0.024440392716 -0.022352402263 -0.0203677158 -0.018776530581 -0.017849596337 -0.017660999206 -0.017964967581 -0.01299155314 -0.013053906658 
-0.013276908673 -0.0136902984 -0.014295378656 -0.015088908114 -0.016063854238 -0.017208403483 -0.018505392606 -0.019931526568 -0.021458744746 
-0.023055035791 -0.024686214717 -0.026318034434 -0.027917547853 -0.029454969907 -0.030904913678 -0.03224735575 -0.033468259073 -0.034559211807 
-0.035516900026 -0.036341529406 -0.037035327436 -0.037601280074 -0.038041968029 -0.038359142215 -0.038554157985 -0.038628353083 -0.038587908356 
-0.03842896416 -0.038156128022 -0.037776024395 -0.037297073511 -0.036728785373 -0.036080902322 -0.035362131132 -0.034578049013 -0.033728014905 
-0.032801125625 -0.031772126123 -0.030600019777 -0.029234430141 -0.027634746242 -0.025802597024 -0.023820487853 -0.021879296871 -0.020266096746 
-0.019276671406 -0.019033098965 -0.019323723237 -0.013748838806 -0.013800634389 -0.014000524231 -0.014398478283 -0.014994678741 -0.015777302532 