# vtk DataFile Version 4.1
vtk output
ASCII
DATASET STRUCTURED_GRID
DIMENSIONS 51 51 1
POINTS 2601 float
0 0 0 0.02 0 0 0.04 0 0 
0.06 0 0 0.08 0 0 0.1 0 0 
0.12 0 0 0.14 0 0 0.16 0 0 
0.18 0 0 0.2 0 0 0.22 0 0 
0.24 0 0 0.26 0 0 0.28 0 0 
0.3 0 0 0.32 0 0 0.34 0 0 
0.36 0 0 0.38 0 0 0.4 0 0 
0.42 0 0 0.44 0 0 0.46 0 0 
0.48 0 0 0.5 0 0 0.52 0 0 
0.54 0 0 0.56 0 0 0.58 0 0 
0.6 0 0 0.62 0 0 0.64 0 0 
0.66 0 0 0.68 0 0 0.7 0 0 
0.72 0 0 0.74 0 0 0.76 0 0 
0.78 0 0 0.8 0 0 0.82 0 0 
0.84 0 0 0.86 0 0 0.88 0 0 
0.9 0 0 0.92 0 0 0.94 0 0 
0.96 0 0 0.98 0 0 1 0 0 
0 0.02 0 0.02 0.02 0 0.04 0.02 0 
0.06 0.02 0 0.08 0.02 0 0.1 0.02 0 
0.12 0.02 0 0.14 0.02 0 0.16 0.02 0 
0.18 0.02 0 0.2 0.02 0 0.22 0.02 0 
0.24 0.02 0 0.26 0.02 0 0.28 0.02 0 
0.3 0.02 0 0.32 0.02 0 0.34 0.02 0 
0.36 0.02 0 0.38 0.02 0 0.4 0.02 0 
0.42 0.02 0 0.44 0.02 0 0.46 0.02 0 
0.48 0.02 0 0.5 0.02 0 0.52 0.02 0 
0.54 0.02 0 0.56 0.02 0 0.58 0.02 0 
0.6 0.02 0 0.62 0.02 0 0.64 0.02 0 
0.66 0.02 0 0.68 0.02 0 0.7 0.02 0 
0.72 0.02 0 0.74 0.02 0 0.76 0.02 0 
0.78 0.02 0 0.8 0.02 0 0.82 0.02 0 
0.84 0.02 0 0.86 0.02 0 0.88 0.02 0 
0.9 0.02 0 0.92 0.02 0 0.94 0.02 0 
0.96 0.02 0 0.98 0.02 0 1 0.02 0 
0 0.04 0 0.02 0.04 0 0.04 0.04 0 
0.06 0.04 0 0.08 0.04 0 0.1 0.04 0 
0.12 0.04 0 0.14 0.04 0 0.16 0.04 0 
0.18 0.04 0 0.2 0.04 0 0.22 0.04 0 
0.24 0.04 0 0.26 0.04 0 0.28 0.04 0 
0.3 0.04 0 0.32 0.04 0 0.34 0.04 0 
0.36 0.04 0 0.38 0.04 0 0.4 0.04 0 
0.42 0.04 0 0.44 0.04 0 0.46 0.04 0 
0.48 0.04 0 0.5 0.04 0 0.52 0.04 0 
0.54 0.04 0 0.56 0.04 0 0.58 0.04 0 
0.6 0.04 0 0.62 0.04 0 0.64 0.04 0 
0.66 0.04 0 0.68 0.04 0 0.7 0.04 0 
0.72 0.04 0 0.74 0.04 0 0.76 0.04 0 
0.78 0.04 0 0.8 0.04 0 0.82 0.04 0 
0.84 0.04 0 0.86 0.04 0 0.88 0.04 0 
0.9 0.04 0 0.92 0.04 0 0.94 0.04 0 
0.96 0.04 0 0.98 0.04 0 1 0.04 0 
0 0.06 0 0.02 0.06 0 0.04 0.06 0 
0.06 0.06 0 0.08 0.06 0 0.1 0.06 0 
0.12 0.06 0 0.14 0.06 0 0.16 0.06 0 
0.18 0.06 0 0.2 0.06 0 0.22 0.06 0 
0.24 0.06 0 0.26 0.06 0 0.28 0.06 0 
0.3 0.06 0 0.32 0.06 0 0.34 0.06 0 
0.36 0.06 0 0.38 0.06 0 0.4 0.06 0 
0.42 0.06 0 0.44 0.06 0 0.46 0.06 0 
0.48 0.06 0 0.5 0.06 0 0.52 0.06 0 
0.54 0.06 0 0.56 0.06 0 0.58 0.06 0 
0.6 0.06 0 0.62 0.06 0 0.64 0.06 0 
0.66 0.06 0 0.68 0.06 0 0.7 0.06 0 
0.72 0.06 0 0.74 0.06 0 0.76 0.06 0 
0.78 0.06 0 0.8 0.06 0 0.82 0.06 0 
0.84 0.06 0 0.86 0.06 0 0.88 0.06 0 
0.9 0.06 0 0.92 0.06 0 0.94 0.06 0 
0.96 0.06 0 0.98 0.06 0 1 0.06 0 
0 0.08 0 0.02 0.08 0 0.04 0.08 0 
0.06 0.08 0 0.08 0.08 0 0.1 0.08 0 
0.12 0.08 0 0.14 0.08 0 0.16 0.08 0 
0.18 0.08 0 0.2 0.08 0 0.22 0.08 0 
0.24 0.08 0 0.26 0.08 0 0.28 0.08 0 
0.3 0.08 0 0.32 0.08 0 0.34 0.08 0 
0.36 0.08 0 0.38 0.08 0 0.4 0.08 0 
0.42 0.08 0 0.44 0.08 0 0.46 0.08 0 
0.48 0.08 0 0.5 0.08 0 0.52 0.08 0 
0.54 0.08 0 0.56 0.08 0 0.58 0.08 0 
0.6 0.08 0 0.62 0.08 0 0.64 0.08 0 
0.66 0.08 0 0.68 0.08 0 0.7 0.08 0 
0.72 0.08 0 0.74 0.08 0 0.76 0.08 0 
0.78 0.08 0 0.8 0.08 0 0.82 0.08 0 
0.84 0.08 0 0.86 0.08 0 0.88 0.08 0 
0.9 0.08 0 0.92 0.08 0 0.94 0.08 0 
0.96 0.08 0 0.98 0.08 0 1 0.08 0 
0 0.1 0 0.02 0.1 0 0.04 0.1 0 
0.06 0.1 0 0.08 0.1 0 0.1 0.1 0 
0.12 0.1 0 0.14 0.1 0 0.16 0.1 0 
0.18 0.1 0 0.2 0.1 0 0.22 0.1 0 
0.24 0.1 0 0.26 0.1 0 0.28 0.1 0 
0.3 0.1 0 0.32 0.1 0 0.34 0.1 0 
0.36 0.1 0 0.38 0.1 0 0.4 0.1 0 
0.42 0.1 0 0.44 0.1 0 0.46 0.1 0 
0.48 0.1 0 0.5 0.1 0 0.52 0.1 0 
0.54 0.1 0 0.56 0.1 0 0.58 0.1 0 
0.6 0.1 0 0.62 0.1 0 0.64 0.1 0 
0.66 0.1 0 0.68 0.1 0 0.7 0.1 0 
0.72 0.1 0 0.74 0.1 0 0.76 0.1 0 
0.78 0.1 0 0.8 0.1 0 0.82 0.1 0 
0.84 0.1 0 0.86 0.1 0 0.88 0.1 0 
0.9 0.1 0 0.92 0.1 0 0.94 0.1 0 
0.96 0.1 0 0.98 0.1 0 1 0.1 0 
0 0.12 0 0.02 0.12 0 0.04 0.12 0 
0.06 0.12 0 0.08 0.12 0 0.1 0.12 0 
0.12 0.12 0 0.14 0.12 0 0.16 0.12 0 
0.18 0.12 0 0.2 0.12 0 0.22 0.12 0 
0.24 0.12 0 0.26 0.12 0 0.28 0.12 0 
0.3 0.12 0 0.32 0.12 0 0.34 0.12 0 
0.36 0.12 0 0.38 0.12 0 0.4 0.12 0 
0.42 0.12 0 0.44 0.12 0 0.46 0.12 0 
0.48 0.12 0 0.5 0.12 0 0.52 0.12 0 
0.54 0.12 0 0.56 0.12 0 0.58 0.12 0 
0.6 0.12 0 0.62 0.12 0 0.64 0.12 0 
0.66 0.12 0 0.68 0.12 0 0.7 0.12 0 
0.72 0.12 0 0.74 0.12 0 0.76 0.12 0 
0.78 0.12 0 0.8 0.12 0 0.82 0.12 0 
0.84 0.12 0 0.86 0.12 0 0.88 0.12 0 
0.9 0.12 0 0.92 0.12 0 0.94 0.12 0 
0.96 0.12 0 0.98 0.12 0 1 0.12 0 
0 0.14 0 0.02 0.14 0 0.04 0.14 0 
0.06 0.14 0 0.08 0.14 0 0.1 0.14 0 
0.12 0.14 0 0.14 0.14 0 0.16 0.14 0 
0.18 0.14 0 0.2 0.14 0 0.22 0.14 0 
0.24 0.14 0 0.26 0.14 0 0.28 0.14 0 
0.3 0.14 0 0.32 0.14 0 0.34 0.14 0 
0.36 0.14 0 0.38 0.14 0 0.4 0.14 0 
0.42 0.14 0 0.44 0.14 0 0.46 0.14 0 
0.48 0.14 0 0.5 0.14 0 0.52 0.14 0 
0.54 0.14 0 0.56 0.14 0 0.58 0.14 0 
0.6 0.14 0 0.62 0.14 0 0.64 0.14 0 
0.66 0.14 0 0.68 0.14 0 0.7 0.14 0 
0.72 0.14 0 0.74 0.14 0 0.76 0.14 0 
0.78 0.14 0 0.8 0.14 0 0.82 0.14 0 
0.84 0.14 0 0.86 0.14 0 0.88 0.14 0 
0.9 0.14 0 0.92 0.14 0 0.94 0.14 0 
0.96 0.14 0 0.98 0.14 0 1 0.14 0 
0 0.16 0 0.02 0.16 0 0.04 0.16 0 
0.06 0.16 0 0.08 0.16 0 0.1 0.16 0 
0.12 0.16 0 0.14 0.16 0 0.16 0.16 0 
0.18 0.16 0 0.2 0.16 0 0.22 0.16 0 
0.24 0.16 0 0.26 0.16 0 0.28 0.16 0 
0.3 0.16 0 0.32 0.16 0 0.34 0.16 0 
0.36 0.16 0 0.38 0.16 0 0.4 0.16 0 
0.42 0.16 0 0.44 0.16 0 0.46 0.16 0 
0.48 0.16 0 0.5 0.16 0 0.52 0.16 0 
0.54 0.16 0 0.56 0.16 0 0.58 0.16 0 
0.6 0.16 0 0.62 0.16 0 0.64 0.16 0 
0.66 0.16 0 0.68 0.16 0 0.7 0.16 0 
0.72 0.16 0 0.74 0.16 0 0.76 0.16 0 
0.78 0.16 0 0.8 0.16 0 0.82 0.16 0 
0.84 0.16 0 0.86 0.16 0 0.88 0.16 0 
0.9 0.16 0 0.92 0.16 0 0.94 0.16 0 
0.96 0.16 0 0.98 0.16 0 1 0.16 0 
0 0.18 0 0.02 0.18 0 0.04 0.18 0 
0.06 0.18 0 0.08 0.18 0 0.1 0.18 0 
0.12 0.18 0 0.14 0.18 0 0.16 0.18 0 
0.18 0.18 0 0.2 0.18 0 0.22 0.18 0 
0.24 0.18 0 0.26 0.18 0 0.28 0.18 0 
0.3 0.18 0 0.32 0.18 0 0.34 0.18 0 
0.36 0.18 0 0.38 0.18 0 0.4 0.18 0 
0.42 0.18 0 0.44 0.18 0 0.46 0.18 0 
0.48 0.18 0 0.5 0.18 0 0.52 0.18 0 
0.54 0.18 0 0.56 0.18 0 0.58 0.18 0 
0.6 0.18 0 0.62 0.18 0 0.64 0.18 0 
0.66 0.18 0 0.68 0.18 0 0.7 0.18 0 
0.72 0.18 0 0.74 0.18 0 0.76 0.18 0 
0.78 0.18 0 0.8 0.18 0 0.82 0.18 0 
0.84 0.18 0 0.86 0.18 0 0.88 0.18 0 
0.9 0.18 0 0.92 0.18 0 0.94 0.18 0 
0.96 0.18 0 0.98 0.18 0 1 0.18 0 
0 0.2 0 0.02 0.2 0 0.04 0.2 0 
0.06 0.2 0 0.08 0.2 0 0.1 0.2 0 
0.12 0.2 0 0.14 0.2 0 0.16 0.2 0 
0.18 0.2 0 0.2 0.2 0 0.22 0.2 0 
0.24 0.2 0 0.26 0.2 0 0.28 0.2 0 
0.3 0.2 0 0.32 0.2 0 0.34 0.2 0 
0.36 0.2 0 0.38 0.2 0 0.4 0.2 0 
0.42 0.2 0 0.44 0.2 0 0.46 0.2 0 
0.48 0.2 0 0.5 0.2 0 0.52 0.2 0 
0.54 0.2 0 0.56 0.2 0 0.58 0.2 0 
0.6 0.2 0 0.62 0.2 0 0.64 0.2 0 
0.66 0.2 0 0.68 0.2 0 0.7 0.2 0 
0.72 0.2 0 0.74 0.2 0 0.76 0.2 0 
0.78 0.2 0 0.8 0.2 0 0.82 0.2 0 
0.84 0.2 0 0.86 0.2 0 0.88 0.2 0 
0.9 0.2 0 0.92 0.2 0 0.94 0.2 0 
0.96 0.2 0 0.98 0.2 0 1 0.2 0 
0 0.22 0 0.02 0.22 0 0.04 0.22 0 
0.06 0.22 0 0.08 0.22 0 0.1 0.22 0 
0.12 0.22 0 0.14 0.22 0 0.16 0.22 0 
0.18 0.22 0 0.2 0.22 0 0.22 0.22 0 
0.24 0.22 0 0.26 0.22 0 0.28 0.22 0 
0.3 0.22 0 0.32 0.22 0 0.34 0.22 0 
0.36 0.22 0 0.38 0.22 0 0.4 0.22 0 
0.42 0.22 0 0.44 0.22 0 0.46 0.22 0 
0.48 0.22 0 0.5 0.22 0 0.52 0.22 0 
0.54 0.22 0 0.56 0.22 0 0.58 0.22 0 
0.6 0.22 0 0.62 0.22 0 0.64 0.22 0 
0.66 0.22 0 0.68 0.22 0 0.7 0.22 0 
0.72 0.22 0 0.74 0.22 0 0.76 0.22 0 
0.78 0.22 0 0.8 0.22 0 0.82 0.22 0 
0.84 0.22 0 0.86 0.22 0 0.88 0.22 0 
0.9 0.22 0 0.92 0.22 0 0.94 0.22 0 
0.96 0.22 0 0.98 0.22 0 1 0.22 0 
0 0.24 0 0.02 0.24 0 0.04 0.24 0 
0.06 0.24 0 0.08 0.24 0 0.1 0.24 0 
0.12 0.24 0 0.14 0.24 0 0.16 0.24 0 
0.18 0.24 0 0.2 0.24 0 0.22 0.24 0 
0.24 0.24 0 0.26 0.24 0 0.28 0.24 0 
0.3 0.24 0 0.32 0.24 0 0.34 0.24 0 
0.36 0.24 0 0.38 0.24 0 0.4 0.24 0 
0.42 0.24 0 0.44 0.24 0 0.46 0.24 0 
0.48 0.24 0 0.5 0.24 0 0.52 0.24 0 
0.54 0.24 0 0.56 0.24 0 0.58 0.24 0 
0.6 0.24 0 0.62 0.24 0 0.64 0.24 0 
0.66 0.24 0 0.68 0.24 0 0.7 0.24 0 
0.72 0.24 0 0.74 0.24 0 0.76 0.24 0 
0.78 0.24 0 0.8 0.24 0 0.82 0.24 0 
0.84 0.24 0 0.86 0.24 0 0.88 0.24 0 
0.9 0.24 0 0.92 0.24 0 0.94 0.24 0 
0.96 0.24 0 0.98 0.24 0 1 0.24 0 
0 0.26 0 0.02 0.26 0 0.04 0.26 0 
0.06 0.26 0 0.08 0.26 0 0.1 0.26 0 
0.12 0.26 0 0.14 0.26 0 0.16 0.26 0 
0.18 0.26 0 0.2 0.26 0 0.22 0.26 0 
0.24 0.26 0 0.26 0.26 0 0.28 0.26 0 
0.3 0.26 0 0.32 0.26 0 0.34 0.26 0 
0.36 0.26 0 0.38 0.26 0 0.4 0.26 0 
0.42 0.26 0 0.44 0.26 0 0.46 0.26 0 
0.48 0.26 0 0.5 0.26 0 0.52 0.26 0 
0.54 0.26 0 0.56 0.26 0 0.58 0.26 0 
0.6 0.26 0 0.62 0.26 0 0.64 0.26 0 
0.66 0.26 0 0.68 0.26 0 0.7 0.26 0 
0.72 0.26 0 0.74 0.26 0 0.76 0.26 0 
0.78 0.26 0 0.8 0.26 0 0.82 0.26 0 
0.84 0.26 0 0.86 0.26 0 0.88 0.26 0 
0.9 0.26 0 0.92 0.26 0 0.94 0.26 0 
0.96 0.26 0 0.98 0.26 0 1 0.26 0 
0 0.28 0 0.02 0.28 0 0.04 0.28 0 
0.06 0.28 0 0.08 0.28 0 0.1 0.28 0 
0.12 0.28 0 0.14 0.28 0 0.16 0.28 0 
0.18 0.28 0 0.2 0.28 0 0.22 0.28 0 
0.24 0.28 0 0.26 0.28 0 0.28 0.28 0 
0.3 0.28 0 0.32 0.28 0 0.34 0.28 0 
0.36 0.28 0 0.38 0.28 0 0.4 0.28 0 
0.42 0.28 0 0.44 0.28 0 0.46 0.28 0 
0.48 0.28 0 0.5 0.28 0 0.52 0.28 0 
0.54 0.28 0 0.56 0.28 0 0.58 0.28 0 
0.6 0.28 0 0.62 0.28 0 0.64 0.28 0 
0.66 0.28 0 0.68 0.28 0 0.7 0.28 0 
0.72 0.28 0 0.74 0.28 0 0.76 0.28 0 
0.78 0.28 0 0.8 0.28 0 0.82 0.28 0 
0.84 0.28 0 0.86 0.28 0 0.88 0.28 0 
0.9 0.28 0 0.92 0.28 0 0.94 0.28 0 
0.96 0.28 0 0.98 0.28 0 1 0.28 0 
0 0.3 0 0.02 0.3 0 0.04 0.3 0 
0.06 0.3 0 0.08 0.3 0 0.1 0.3 0 
0.12 0.3 0 0.14 0.3 0 0.16 0.3 0 
0.18 0.3 0 0.2 0.3 0 0.22 0.3 0 
0.24 0.3 0 0.26 0.3 0 0.28 0.3 0 
0.3 0.3 0 0.32 0.3 0 0.34 0.3 0 
0.36 0.3 0 0.38 0.3 0 0.4 0.3 0 
0.42 0.3 0 0.44 0.3 0 0.46 0.3 0 
0.48 0.3 0 0.5 0.3 0 0.52 0.3 0 
0.54 0.3 0 0.56 0.3 0 0.58 0.3 0 
0.6 0.3 0 0.62 0.3 0 0.64 0.3 0 
0.66 0.3 0 0.68 0.3 0 0.7 0.3 0 
0.72 0.3 0 0.74 0.3 0 0.76 0.3 0 
0.78 0.3 0 0.8 0.3 0 0.82 0.3 0 
0.84 0.3 0 0.86 0.3 0 0.88 0.3 0 
0.9 0.3 0 0.92 0.3 0 0.94 0.3 0 
0.96 0.3 0 0.98 0.3 0 1 0.3 0 
0 0.32 0 0.02 0.32 0 0.04 0.32 0 
0.06 0.32 0 0.08 0.32 0 0.1 0.32 0 
0.12 0.32 0 0.14 0.32 0 0.16 0.32 0 
0.18 0.32 0 0.2 0.32 0 0.22 0.32 0 
0.24 0.32 0 0.26 0.32 0 0.28 0.32 0 
0.3 0.32 0 0.32 0.32 0 0.34 0.32 0 
0.36 0.32 0 0.38 0.32 0 0.4 0.32 0 
0.42 0.32 0 0.44 0.32 0 0.46 0.32 0 
0.48 0.32 0 0.5 0.32 0 0.52 0.32 0 
0.54 0.32 0 0.56 0.32 0 0.58 0.32 0 
[...]
CELL_DATA 2500
FIELD FieldData 2
pressure 1 2500 double
-0.0066016602597 -0.0066059656139 -0.0066239194814 -0.0066539813445 -0.0066948925144 -0.0067462032737 -0.0068075085093 -0.0068782119528 -0.0069572942929 
-0.0070435582627 -0.0071360554726 -0.0072342593401 -0.0073377004824 -0.0074456944868 -0.0075567232856 -0.0076679568551 -0.0077751836621 -0.0078728212312 
-0.0079540897256 -0.0080112437845 -0.0080356505866 -0.008017914765 -0.0079481485139 -0.0078163560519 -0.007613063137 -0.0073302016316 -0.0069621301374 
-0.0065067517023 -0.0059667458098 -0.0053509217722 -0.0046784099784 -0.0039834556376 -0.0032930352648 -0.0026408502327 -0.0020638945765 -0.0015986676766 
-0.0012764263506 -0.0011177989984 -0.0011275444153 -0.0012909673031 -0.0015639579159 -0.0018990468347 -0.0022460581872 -0.0025619736365 -0.0028191645852 
-0.0030095674143 -0.0031349328125 -0.0032013232001 -0.0032170957603 -0.0031972063812 -0.0065966312874 -0.0066006160236 -0.0066175723307 -0.0066463900407 
-0.006686140038 -0.0067358756535 -0.0067947492779 -0.0068616808849 -0.0069355888647 -0.0070158936862 -0.0071023469249 -0.0071947703765 -0.0072929272065 
-0.0073959203106 -0.0075018513207 -0.0076078495415 -0.0077100090547 -0.0078034442122 -0.0078823112638 -0.0079396494128 -0.0079673538478 -0.0079562487634 
-0.0078962856649 -0.007777084428 -0.0075887188112 -0.0073225972484 -0.0069724793645 -0.0065355286654 -0.0060132324447 -0.0054118454762 -0.0047661104029 
-0.004092847213 -0.0034215863641 -0.0027861491636 -0.0022229547073 -0.0017676927189 -0.0014507616812 -0.0012918922562 -0.001294930792 -0.0014439611124 
-0.0017028193365 -0.0020050785181 -0.0023211699547 -0.0026069206915 -0.0028375908184 -0.0030070020931 -0.0031188328633 -0.0031802663808 -0.0031983175226 
-0.0031778361813 -0.0065750616376 -0.0065819359686 -0.0066007411398 -0.0066303678681 -0.0066696670841 -0.0067177118137 -0.0067735723985 -0.0068363704581 
-0.0069057993326 -0.0069819412042 -0.0070649244691 -0.0071548903498 -0.0072514589336 -0.0073535078388 -0.0074593232698 -0.007566527412 -0.0076720128417 
-0.0077718081231 -0.0078607049525 -0.0079320235897 -0.0079774967488 -0.0079873225958 -0.0079506172705 -0.0078561054649 -0.0076929068043 -0.0074514937843 
-0.0071246839332 -0.0067085016452 -0.0062028724107 -0.005621745138 -0.0049931499826 -0.0043311460776 -0.0036656487122 -0.0030307254261 -0.0024629723744 
-0.0019983770179 -0.0016679314058 -0.0014924085692 -0.0014770121388 -0.001607165446 -0.0018472121739 -0.0021442235725 -0.0024406172555 -0.0027110242522 
-0.0029221957526 -0.0030705986898 -0.0031650716907 -0.0032149602301 -0.0032269814399 -0.0032004897128 -0.006539400899 -0.0065526435714 -0.0065753918192 
-0.0066065873793 -0.0066454967358 -0.0066915912518 -0.0067444816011 -0.0068043073721 -0.0068715766164 -0.0069468167873 -0.0070305655914 -0.007122897038 
-0.0072233708155 -0.0073312742899 -0.0074455570223 -0.0075647182989 -0.0076865569397 -0.0078076116511 -0.0079227136195 -0.0080246740695 -0.0081042133248 
-0.0081503459596 -0.008150964824 -0.0080935667741 -0.0079661849751 -0.0077583397358 -0.0074619064882 -0.0070719606339 -0.006587323338 -0.0060317329238 
-0.0054151877659 -0.0047588731351 -0.0040911770955 -0.0034456183364 -0.0028586827098 -0.0023667704173 -0.0020020583858 -0.001787480498 -0.0017314127444 
-0.0018232400887 -0.0020315937973 -0.0023075136771 -0.0025947075033 -0.0028517806326 -0.0030559320194 -0.0031888617305 -0.0032672490127 -0.0033043179141 
-0.0033087875758 -0.0032798335675 -0.0064945641101 -0.006516411911 -0.0065437116916 -0.0065764238402 -0.0066147853398 -0.0066592148027 -0.0067106259336 
-0.0067702159201 -0.0068390760379 -0.0069182570214 -0.0070083270579 -0.0071094701534 -0.0072218537422 -0.0073455560604 -0.0074804703811 -0.0076260174506 
-0.0077803879602 -0.0079399305852 -0.0080986827074 -0.0082481573338 -0.0083776427845 -0.00847469811 -0.0085258164414 -0.008517328009 -0.0084362955599 
-0.0082714092008 -0.0080139738202 -0.0076588350564 -0.007205147364 -0.006674188291 -0.0060721942647 -0.0054201341492 -0.0047452196898 -0.0040799251339 
-0.0034601726851 -0.0029225914738 -0.0025007344003 -0.0022203969917 -0.0020945471394 -0.0021188026974 -0.0022690060492 -0.0025029355674 -0.002767715843 
-0.0030124153954 -0.0032088658297 -0.003340719605 -0.0034097807059 -0.0034388543839 -0.003439304487 -0.0034128821415 -0.0064467372349 -0.0064776554814 
-0.0065091636718 -0.0065430362214 -0.0065810764115 -0.0066253866195 -0.0066782229595 -0.0067415182712 -0.0068170144784 -0.0069058983334 -0.0070090160135 
-0.0071273389793 -0.0072619355902 -0.0074139201026 -0.0075841723809 -0.0077724157349 -0.0079765001291 -0.0081918110291 -0.0084109099068 -0.0086237244242 
-0.0088179388667 -0.0089795935098 -0.009093934423 -0.0091462319755 -0.009122668571 -0.0090113569615 -0.0088033006424 -0.0084933252947 -0.0080811064732 
-0.0075799826293 -0.0069962191278 -0.0063489283136 -0.0056635293695 -0.0049709039946 -0.0043058835924 -0.003704916545 -0.0032028052449 -0.0028285575124 
-0.0026006938322 -0.0025227470606 -0.0025802108083 -0.0027405170285 -0.0029574452543 -0.0031804218665 -0.0033675580839 -0.0034987005382 -0.0035737423385 
-0.0036050389185 -0.0036083869524 -0.0035890863059 -0.0064027345281 -0.0064421756428 -0.006477144027 -0.006512062218 -0.0065510647969 -0.0065980102975 
-0.006656074173 -0.0067279401709 -0.006815582031 -0.00692061241 -0.0070448094899 -0.0071901708913 -0.0073589463053 -0.0075533562488 -0.0077745638436 
-0.00802192417 -0.0082922863899 -0.00857948248 -0.0088744141337 -0.0091653106119 -0.0094382463374 -0.0096779090702 -0.0098683333655 -0.0099937588407 
-0.010039613651 -0.0099934377838 -0.0098458739403 -0.009591726829 -0.0092309583586 -0.0087672121239 -0.00820644169 -0.0075657549116 -0.0068684030833 
-0.0061431317892 -0.0054230524699 -0.0047438368243 -0.004141083689 -0.0036468460149 -0.0032855213558 -0.003069590494 -0.0029960633333 -0.0030447956978 
-0.0031800066808 -0.0033559950191 -0.0035275498656 -0.0036638010641 -0.0037478926009 -0.0037922080367 -0.0038067089249 -0.0037984309054 -0.0063703730395 
-0.0064172430275 -0.0064550863496 -0.0064918234591 -0.006534112491 -0.0065870771961 -0.0066547347842 -0.0067400916626 -0.0068456439275 -0.0069740235492 
-0.0071281747217 -0.0073114577941 -0.0075273956388 -0.0077785751511 -0.0080658886678 -0.008387777457 -0.0087395551904 -0.0091133814083 -0.0094984070897 
-0.0098811734676 -0.010246267988 -0.01057696866 -0.01085605944 -0.011066749553 -0.011193568562 -0.011223389409 -0.011146474229 -0.010957401589 
-0.010656051441 -0.010236672797 -0.0097038907979 -0.0090728397733 -0.0083643250182 -0.0076044607644 -0.0068239479397 -0.0060568322243 -0.0053386294408 
-0.0047037349466 -0.0041821120994 -0.0037954708245 -0.0035534463567 -0.0034506064173 -0.0034653048803 -0.0035616299423 -0.0036957679149 -0.0038272589851 
-0.0039303897368 -0.0039957894134 -0.0040301354941 -0.0040361745762 -0.0063582887322 -0.0064114878941 -0.0064522984112 -0.0064925489276 -0.0065409129166 
-0.0066035565835 -0.0066849457944 -0.0067886381398 -0.0069181704224 -0.0070774741768 -0.0072710222334 -0.0075036540296 -0.0077794321256 -0.0081008688433 
-0.0084681482965 -0.0088782754612 -0.0093249387696 -0.0097985555098 -0.010286525904 -0.010773744663 -0.011243164122 -0.011676547799 -0.012055327907 
-0.01236149117 -0.012578617585 -0.012692884462 -0.012693967938 -0.01257605871 -0.012338850842 -0.011969024017 -0.011468811181 -0.010851467825 
-0.010135186836 -0.0093429510906 -0.0085022288129 -0.0076443928939 -0.0068037215807 -0.0060157971883 -0.0053151392018 -0.0047320891328 -0.0042891135252 
-0.0039969085272 -0.0038510404065 -0.0038302312033 -0.0038980228837 -0.0040100491052 -0.0041271776262 -0.0042233258415 -0.0042814228668 -0.0043043663825 
-0.0063757788454 -0.0064345031573 -0.0064791470529 -0.0065249895844 -0.0065822823805 -0.00665789278 -0.0067568392688 -0.0068836743235 -0.0070433293243 
-0.0072413728338 -0.0074839671118 -0.0077767145474 -0.0081238690841 -0.0085275367159 -0.0089866335586 -0.0094966688288 -0.010049677858 -0.010634292459 
-0.011236097852 -0.011838131474 -0.012421554798 -0.01296644298 -0.013452678877 -0.013861003057 -0.014174001687 -0.01437703661 -0.01445930044 
-0.0144147233 -0.014242705325 -0.013924964864 -0.013460950935 -0.012862155007 -0.012143954686 -0.011325708422 -0.010430884349 -0.0094871365912 
-0.0085261764664 -0.0075831941082 -0.0066956060156 -0.0059009146516 -0.0052335204491 -0.0047205186249 -0.0043767508284 -0.0041998381546 -0.004166851931 
-0.0042357430449 -0.004355175809 -0.0044789640473 -0.0045674013051 -0.0046105260151 -0.0064322073533 -0.0064961252734 -0.0065457836993 -0.0065991913405 
-0.0066678516651 -0.0067592643004 -0.00687933992 -0.0070340445548 -0.0072299760403 -0.0074745497316 -0.0077749334869 -0.0081372219883 -0.0085656133494 
-0.0090611877363 -0.0096215988002 -0.010240871908 -0.010909263614 -0.011613459012 -0.012337006848 -0.013060895834 -0.013764254116 -0.014425254398 
-0.01502220454 -0.015534558239 -0.015943916346 -0.01623515033 -0.016397230174 -0.016423890933 -0.016314360406 -0.016048293846 -0.015622706377 
-0.015047359431 -0.014334726832 -0.013500247538 -0.012562820971 -0.011545457481 -0.01047592539 -0.0093871887096 -0.0083173467151 -0.0073086909382 
-0.0064055070986 -0.0056502385741 -0.0050777141728 -0.0047075872584 -0.0045361493491 -0.0045307047814 -0.0046326603553 -0.0047733965078 -0.0048992703753 
-0.0049661352796 -0.0065363819791 -0.0066053246547 -0.006660908282 -0.0067234408492 -0.0068054004065 -0.0069150752652 -0.0070597100428 -0.0072468722591 
-0.0074850553104 -0.0077829196088 -0.0081483989796 -0.0085878873164 -0.009104886631 -0.0096995270351 -0.010368224768 -0.011103306609 -0.011893036005 
-0.012721967254 -0.013571388036 -0.014419909252 -0.015244387914 -0.016021075724 -0.016726675248 -0.017339446011 -0.017840458795 -0.018214411575 
-0.018450300761 -0.018542128325 -0.018489130356 -0.018271252009 -0.017884293585 -0.017336448706 -0.016637376337 -0.015798602751 -0.014834240093 
-0.013761987088 -0.012604403701 -0.011390268186 -0.010155707691 -0.0089447013728 -0.0078083422937 -0.0068020430882 -0.0059798193915 -0.0053850632481 
-0.0050381481505 -0.0049236737513 -0.0049849211019 -0.0051370910135 -0.0052941320239 -0.0053848958688 -0.0066956746491 -0.0067690341529 -0.0068310203976 
-0.0069037241435 -0.0070004596335 -0.0071306919418 -0.00730310102 -0.0075270455788 -0.0078124509688 -0.0081689188937 -0.0086050136369 -0.009126837347 
-0.0097372828708 -0.010435569826 -0.011216603497 -0.012070790276 -0.012984280798 -0.013939228251 -0.014914239111 -0.015885324533 -0.016827080348 
-0.017713778274 -0.018520611901 -0.019225172731 -0.019808329481 -0.020255007969 -0.020554931246 -0.020702619846 -0.020697300096 -0.020521175399 
-0.020170711942 -0.019652718701 -0.018974469895 -0.018144003961 -0.017170782998 -0.01606687674 -0.014848622629 -0.01353870328 -0.012168484967 
-0.010780141072 -0.0094277237719 -0.00817603931 -0.0070959244373 -0.0062544620735 -0.0056994470154 -0.0054398689221 -0.0054298725908 -0.0055724468075 
-0.0057509474057 -0.0058757944381 -0.0069149198306 -0.0069915924267 -0.0070599816312 -0.0071434086988 -0.0072562287508 -0.0074090973152 -0.0076122096124 
-0.0078763976812 -0.0082125735711 -0.0086312308469 -0.0091410705181 -0.009747913271 -0.010454135297 -0.011257754594 -0.012151955344 -0.013125172725 
-0.014161123317 -0.015239087186 -0.016334850519 -0.017421850098 -0.018472281239 -0.019458503032 -0.020354806906 -0.021138404124 -0.021790428198 
-0.022296820726 -0.022648224633 -0.022839852662 -0.02287129883 -0.022728269341 -0.022409777184 -0.021921783362 -0.021269885452 -0.02045931996 
-0.0194954763 -0.018384906589 -0.01713708404 -0.015767089606 -0.014299041679 -0.012769787398 -0.011232011113 -0.009755369739 -0.0084236696524 
-0.0073257705607 -0.0065382938176 -0.0061004282895 -0.0059872219735 -0.0061002225045 -0.0062992617407 -0.0064557497277 -0.0071958994899 -0.0072744069729 
-0.007348753577 -0.0074433046068 -0.0075733644119 -0.0077506917063 -0.0079867598967 -0.0082932995588 -0.0086822220924 -0.0091645390569 -0.0097489446979 
-0.010441168347 -0.011242802471 -0.012150446703 -0.013155578312 -0.014244311662 -0.015397485499 -0.016591477829 -0.017799253212 -0.018991466446 
-0.020137984353 -0.021209966398 -0.022180974315 -0.023028292222 -0.023734097334 -0.024285413293 -0.024674092064 -0.024896543111 -0.024952867644 
-0.024832990237 -0.024540155463 -0.024080028414 -0.023457332768 -0.022675567269 -0.0217369517 -0.0206430779 -0.019396650278 -0.018004417478 
-0.016481335355 -0.014855718766 -0.013174513141 -0.011507072162 -0.0099450627394 -0.0085953613538 -0.0075626807593 -0.0069203297717 -0.0066735269296 
-0.0067341342608 -0.0069432041086 -0.0071324704466 -0.0075372898611 -0.007615877438 -0.007695607878 -0.0078016325667 -0.0079499098809 -0.0081530247599 
-0.0084231041905 -0.0087727516403 -0.0092146421236 -0.0097599600165 -0.010417706086 -0.011193304924 -0.012087294646 -0.013094942662 -0.014205694621 
-0.015402996047 -0.016664837686 -0.017964674357 -0.019272450839 -0.020556144463 -0.021784111988 -0.022926322173 -0.023956035591 -0.024851375151 
-0.025595483506 -0.026176748747 -0.026588674771 -0.026828942081 -0.026898484193 -0.02679209866 -0.026517628502 -0.026081012109 -0.02548713241 
-0.024738833975 -0.02383638529 -0.022777730433 -0.021559736133 -0.020180931923 -0.018646115501 -0.016972641963 -0.015197665011 -0.01338481276 
-0.011627588829 -0.010045551637 -0.008768585441 -0.0079055759741 -0.0074991245434 -0.0074830231634 -0.0076871577011 -0.0079084880596 -0.0079348264038 
-0.0080117069139 -0.0080963485209 -0.0082141489224 -0.0083812784691 -0.0086105411108 -0.0089145578764 -0.0093066890514 -0.0097998398011 -0.010405783064 
-0.011133679114 -0.011988275124 -0.01296922668 -0.014070231001 -0.015278434322 -0.016574638818 -0.017934033621 -0.019327011183 -0.020720631696 
-0.022081106113 -0.023375150521 -0.024571982738 -0.025645365822 -0.026574031996 -0.027342279469 -0.027940213666 -0.028362923244 -0.028609574005 
-0.028682628707 -0.028581494405 -0.02831783384 -0.027898592814 -0.027329561968 -0.026614117218 -0.025752277195 -0.024740142203 -0.023570405033 
-0.02223460136 -0.020727515021 -0.019054031131 -0.017238138009 -0.015332617674 -0.013426451839 -0.011645343436 -0.010139360272 -0.0090517264304 
-0.0084670049519 -0.0083516771022 -0.0085353048131 -0.0087838838492 -0.0083816613114 -0.0084554012908 -0.0085446330507 -0.0086742984014 -0.0088601935351 
-0.0091150384632 -0.0094518583748 -0.0098841616167 -0.010425499453 -0.011088162639 -0.011880967722 -0.012808241053 -0.013868643072 -0.01505401443 
-0.016349250845 -0.017732693941 -0.019176632787 -0.020648581745 -0.022113681262 -0.023536203369 -0.024881699095 -0.026119517749 -0.027223529908 
-0.028173189588 -0.028954316314 -0.029558509261 -0.029982444753 -0.030227302914 -0.030297033024 -0.03019485663 -0.029934945876 -0.029525529232 
-0.028974040554 -0.028285728337 -0.027462036834 -0.026499344806 -0.025388604246 -0.024116442122 -0.022668781538 -0.021037787343 -0.019232154545 
-0.017289528604 -0.015288147776 -0.013352616927 -0.011646523285 -0.010343612368 -0.0095720921578 -0.009340125593 -0.0094897916444 -0.0097637228875 
-0.0088691231074 -0.0089387556322 -0.0090321937647 -0.0091733156093 -0.0093771690036 -0.0096562015843 -0.010023317304 -0.010492441451 -0.011077784394 
-0.011791531874 -0.012642467018 -0.013634490922 -0.014764878556 -0.016023779089 -0.017394113173 -0.018851688607 -0.02036615301 -0.021903086321 
-0.02342565902 -0.024896668334 -0.026281459926 -0.02754899437 -0.028673366122 -0.02963521232 -0.030421524389 -0.031025231694 -0.031445011004 
-0.03168356805 -0.031746213075 -0.031638884905 -0.031376383201 -0.030968513142 -0.030425079117 -0.029754181694 -0.028960266972 -0.02804222172 
-0.026991776507 -0.025793290834 -0.024426161028 -0.022871063252 -0.021120719973 -0.019194584331 -0.017154697768 -0.015117257581 -0.013251538027 
-0.011755696026 -0.010800171638 -0.010440814309 -0.010544214358 -0.010836333227 -0.0093874044721 -0.0094521631117 -0.0095491396828 -0.0097008045984 
-0.0099211150045 -0.010221908044 -0.010616024458 -0.011117857933 -0.011741621017 -0.012499670883 -0.013400803504 -0.014448011153 -0.015637471967 
-0.016957930954 -0.018390284992 -0.019908136607 -0.02147936751 -0.02306783445 -0.024635083668 -0.026143478464 -0.027557639897 -0.02884626491 
-0.029984244745 -0.030953012718 -0.031740466983 -0.032341328423 -0.032755455363 -0.032986536832 -0.033041216099 -0.032926256374 -0.032655791589 
-0.032241500691 -0.031695911064 -0.031030676883 -0.030254466906 -0.02937031474 -0.028373084578 -0.027247887963 -0.025970777555 -0.024513464102 
-0.022853682526 -0.020991336657 -0.018968090758 -0.016884921169 -0.014908413961 -0.013253233844 -0.012127636811 -0.011637701984 -0.011685033404 
-0.011987706669 -0.0099259068055 -0.0099850473788 -0.010084637909 -0.01024531596 -0.010479833732 -0.010799356174 -0.011216647846 -0.011746034519 
-0.012401829762 -0.01319661543 -0.014138688574 -0.015230426326 -0.016467207895 -0.017836291556 -0.019316963746 -0.020881408201 -0.022496219924 
-0.024123731004 -0.025724978854 -0.02726150892 -0.028697260098 -0.030001383869 -0.031149209746 -0.032122622981 -0.032911117004 -0.03351018619 
-0.033920110171 -0.034145313446 -0.034192829359 -0.034068872438 -0.033786392158 -0.0333589481 -0.032801836095 -0.032130643344 -0.031358770026 
-0.030494439448 -0.029537504615 -0.028476645238 -0.027288113384 -0.025938290301 -0.024392549934 -0.022631683158 -0.02067444251 -0.018600922795 
-0.016566858668 -0.014794406197 -0.01352264968 -0.012906927707 -0.012891907252 -0.013197806307 -0.010473679801 -0.010526544429 -0.010627313414 
-0.010794933995 -0.011040971435 -0.011375782211 -0.011811756298 -0.012362983037 -0.013043915068 -0.013866870434 -0.014839818911 -0.015964850676 
-0.017236347775 -0.01864060455 -0.020155950268 -0.021753807369 -0.023399631366 -0.025055327765 -0.0266812945 -0.028238154765 -0.029690038081 
-0.031006235717 -0.03216214634 -0.0331410667 -0.033932973124 -0.034533363159 -0.034942712898 -0.035164905472 -0.035206577523 -0.035073267393 
-0.034776250367 -0.034330690761 -0.033754750821 -0.03306779899 -0.032287905841 -0.0314288562 -0.030496643028 -0.029485654404 -0.028375717925 
-0.027132082154 -0.025711605378 -0.0240781726 -0.022227110475 -0.020213705646 -0.018175604833 -0.016333100822 -0.014947203395 -0.014218231633 
-0.01413881621 -0.014441609487 -0.01102015207 -0.011065738963 -0.011165868977 -0.011338089295 -0.011592603292 -0.011938902335 -0.012388663728 
-0.01295570615 -0.013654196719 -0.014496184282 -0.015489601655 -0.016635959462 -0.01792918501 -0.01935513292 -0.020891875547 -0.022510292324 
-0.024175667662 -0.025849671108 -0.027491829582 -0.029062782405 -0.030526669258 -0.031852575614 -0.033017039514 -0.034003741046 -0.034802405602 
-0.035408496497 -0.035821398547 -0.036043479178 -0.0360808176 -0.035938591902 -0.035625753034 -0.035159283682 -0.034559893789 -0.033850233827 
-0.033052653573 -0.032186397166 -0.031263830797 -0.030286261146 -0.029239748192 -0.028092392124 -0.026797120171 -0.025304750276 -0.023588755296 
-0.021677758869 -0.019685634541 -0.017821936296 -0.016359595448 -0.015536833341 -0.015395651447 -0.015690609502 -0.011555615218 -0.011592146228 
-0.011689749973 -0.011863935654 -0.01212373662 -0.012477463132 -0.012935923949 -0.013512361933 -0.014220486298 -0.015072205741 -0.016075141975 
-0.017230594839 -0.018532526353 -0.019966914726 -0.021511952604 -0.023138749922 -0.024812874814 -0.026495520761 -0.028146192412 -0.029725679232 
-0.031197774909 -0.032532377059 -0.033706440433 -0.034703133373 -0.035512216686 -0.036128013012 -0.036547856892 -0.036772545557 -0.036806875917 
-0.036656358808 -0.036327811074 -0.035839758467 -0.035214986481 -0.03447896735 -0.033657839101 -0.032775568031 -0.031850461525 -0.03089103591 
-0.029890989891 -0.028824500193 -0.027645379493 -0.02629631139 -0.024732290572 -0.022955658246 -0.021052886388 -0.019215134835 -0.017717028793 
-0.016825509939 -0.016629875585 -0.01691424309 -0.012070751555 -0.0120975939 -0.012189201321 -0.012362791066 -0.012624705429 -0.012981656661 