# vtk DataFile Version 4.1
vtk output
ASCII
DATASET STRUCTURED_GRID
DIMENSIONS 51 51 1
POINTS 2601 float
0 0 0 0.02 0 0 0.04 0 0 
0.06 0 0 0.08 0 0 0.1 0 0 
0.12 0 0 0.14 0 0 0.16 0 0 
0.18 0 0 0.2 0 0 0.22 0 0 
0.24 0 0 0.26 0 0 0.28 0 0 
0.3 0 0 0.32 0 0 0.34 0 0 
0.36 0 0 0.38 0 0 0.4 0 0 
0.42 0 0 0.44 0 0 0.46 0 0 
0.48 0 0 0.5 0 0 0.52 0 0 
0.54 0 0 0.56 0 0 0.58 0 0 
0.6 0 0 0.62 0 0 0.64 0 0 
0.66 0 0 0.68 0 0 0.7 0 0 
0.72 0 0 0.74 0 0 0.76 0 0 
0.78 0 0 0.8 0 0 0.82 0 0 
0.84 0 0 0.86 0 0 0.88 0 0 
0.9 0 0 0.92 0 0 0.94 0 0 
0.96 0 0 0.98 0 0 1 0 0 
0 0.02 0 0.02 0.02 0 0.04 0.02 0 
0.06 0.02 0 0.08 0.02 0 0.1 0.02 0 
0.12 0.02 0 0.14 0.02 0 0.16 0.02 0 
0.18 0.02 0 0.2 0.02 0 0.22 0.02 0 
0.24 0.02 0 0.26 0.02 0 0.28 0.02 0 
0.3 0.02 0 0.32 0.02 0 0.34 0.02 0 
0.36 0.02 0 0.38 0.02 0 0.4 0.02 0 
0.42 0.02 0 0.44 0.02 0 0.46 0.02 0 
0.48 0.02 0 0.5 0.02 0 0.52 0.02 0 
0.54 0.02 0 0.56 0.02 0 0.58 0.02 0 
0.6 0.02 0 0.62 0.02 0 0.64 0.02 0 
0.66 0.02 0 0.68 0.02 0 0.7 0.02 0 
0.72 0.02 0 0.74 0.02 0 0.76 0.02 0 
0.78 0.02 0 0.8 0.02 0 0.82 0.02 0 
0.84 0.02 0 0.86 0.02 0 0.88 0.02 0 
0.9 0.02 0 0.92 0.02 0 0.94 0.02 0 
0.96 0.02 0 0.98 0.02 0 1 0.02 0 
0 0.04 0 0.02 0.04 0 0.04 0.04 0 
0.06 0.04 0 0.08 0.04 0 0.1 0.04 0 
0.12 0.04 0 0.14 0.04 0 0.16 0.04 0 
0.18 0.04 0 0.2 0.04 0 0.22 0.04 0 
0.24 0.04 0 0.26 0.04 0 0.28 0.04 0 
0.3 0.04 0 0.32 0.04 0 0.34 0.04 0 
0.36 0.04 0 0.38 0.04 0 0.4 0.04 0 
0.42 0.04 0 0.44 0.04 0 0.46 0.04 0 
0.48 0.04 0 0.5 0.04 0 0.52 0.04 0 
0.54 0.04 0 0.56 0.04 0 0.58 0.04 0 
0.6 0.04 0 0.62 0.04 0 0.64 0.04 0 
0.66 0.04 0 0.68 0.04 0 0.7 0.04 0 
0.72 0.04 0 0.74 0.04 0 0.76 0.04 0 
0.78 0.04 0 0.8 0.04 0 0.82 0.04 0 
0.84 0.04 0 0.86 0.04 0 0.88 0.04 0 
0.9 0.04 0 0.92 0.04 0 0.94 0.04 0 
0.96 0.04 0 0.98 0.04 0 1 0.04 0 
0 0.06 0 0.02 0.06 0 0.04 0.06 0 
0.06 0.06 0 0.08 0.06 0 0.1 0.06 0 
0.12 0.06 0 0.14 0.06 0 0.16 0.06 0 
0.18 0.06 0 0.2 0.06 0 0.22 0.06 0 
0.24 0.06 0 0.26 0.06 0 0.28 0.06 0 
0.3 0.06 0 0.32 0.06 0 0.34 0.06 0 
0.36 0.06 0 0.38 0.06 0 0.4 0.06 0 
0.42 0.06 0 0.44 0.06 0 0.46 0.06 0 
0.48 0.06 0 0.5 0.06 0 0.52 0.06 0 
0.54 0.06 0 0.56 0.06 0 0.58 0.06 0 
0.6 0.06 0 0.62 0.06 0 0.64 0.06 0 
0.66 0.06 0 0.68 0.06 0 0.7 0.06 0 
0.72 0.06 0 0.74 0.06 0 0.76 0.06 0 
0.78 0.06 0 0.8 0.06 0 0.82 0.06 0 
0.84 0.06 0 0.86 0.06 0 0.88 0.06 0 
0.9 0.06 0 0.92 0.06 0 0.94 0.06 0 
0.96 0.06 0 0.98 0.06 0 1 0.06 0 
0 0.08 0 0.02 0.08 0 0.04 0.08 0 
0.06 0.08 0 0.08 0.08 0 0.1 0.08 0 
0.12 0.08 0 0.14 0.08 0 0.16 0.08 0 
0.18 0.08 0 0.2 0.08 0 0.22 0.08 0 
0.24 0.08 0 0.26 0.08 0 0.28 0.08 0 
0.3 0.08 0 0.32 0.08 0 0.34 0.08 0 
0.36 0.08 0 0.38 0.08 0 0.4 0.08 0 
0.42 0.08 0 0.44 0.08 0 0.46 0.08 0 
0.48 0.08 0 0.5 0.08 0 0.52 0.08 0 
0.54 0.08 0 0.56 0.08 0 0.58 0.08 0 
0.6 0.08 0 0.62 0.08 0 0.64 0.08 0 
0.66 0.08 0 0.68 0.08 0 0.7 0.08 0 
0.72 0.08 0 0.74 0.08 0 0.76 0.08 0 
0.78 0.08 0 0.8 0.08 0 0.82 0.08 0 
0.84 0.08 0 0.86 0.08 0 0.88 0.08 0 
0.9 0.08 0 0.92 0.08 0 0.94 0.08 0 
0.96 0.08 0 0.98 0.08 0 1 0.08 0 
0 0.1 0 0.02 0.1 0 0.04 0.1 0 
0.06 0.1 0 0.08 0.1 0 0.1 0.1 0 
0.12 0.1 0 0.14 0.1 0 0.16 0.1 0 
0.18 0.1 0 0.2 0.1 0 0.22 0.1 0 
0.24 0.1 0 0.26 0.1 0 0.28 0.1 0 
0.3 0.1 0 0.32 0.1 0 0.34 0.1 0 
0.36 0.1 0 0.38 0.1 0 0.4 0.1 0 
0.42 0.1 0 0.44 0.1 0 0.46 0.1 0 
0.48 0.1 0 0.5 0.1 0 0.52 0.1 0 
0.54 0.1 0 0.56 0.1 0 0.58 0.1 0 
0.6 0.1 0 0.62 0.1 0 0.64 0.1 0 
0.66 0.1 0 0.68 0.1 0 0.7 0.1 0 
0.72 0.1 0 0.74 0.1 0 0.76 0.1 0 
0.78 0.1 0 0.8 0.1 0 0.82 0.1 0 
0.84 0.1 0 0.86 0.1 0 0.88 0.1 0 
0.9 0.1 0 0.92 0.1 0 0.94 0.1 0 
0.96 0.1 0 0.98 0.1 0 1 0.1 0 
0 0.12 0 0.02 0.12 0 0.04 0.12 0 
0.06 0.12 0 0.08 0.12 0 0.1 0.12 0 
0.12 0.12 0 0.14 0.12 0 0.16 0.12 0 
0.18 0.12 0 0.2 0.12 0 0.22 0.12 0 
0.24 0.12 0 0.26 0.12 0 0.28 0.12 0 
0.3 0.12 0 0.32 0.12 0 0.34 0.12 0 
0.36 0.12 0 0.38 0.12 0 0.4 0.12 0 
0.42 0.12 0 0.44 0.12 0 0.46 0.12 0 
0.48 0.12 0 0.5 0.12 0 0.52 0.12 0 
0.54 0.12 0 0.56 0.12 0 0.58 0.12 0 
0.6 0.12 0 0.62 0.12 0 0.64 0.12 0 
0.66 0.12 0 0.68 0.12 0 0.7 0.12 0 
0.72 0.12 0 0.74 0.12 0 0.76 0.12 0 
0.78 0.12 0 0.8 0.12 0 0.82 0.12 0 
0.84 0.12 0 0.86 0.12 0 0.88 0.12 0 
0.9 0.12 0 0.92 0.12 0 0.94 0.12 0 
0.96 0.12 0 0.98 0.12 0 1 0.12 0 
0 0.14 0 0.02 0.14 0 0.04 0.14 0 
0.06 0.14 0 0.08 0.14 0 0.1 0.14 0 
0.12 0.14 0 0.14 0.14 0 0.16 0.14 0 
0.18 0.14 0 0.2 0.14 0 0.22 0.14 0 
0.24 0.14 0 0.26 0.14 0 0.28 0.14 0 
0.3 0.14 0 0.32 0.14 0 0.34 0.14 0 
0.36 0.14 0 0.38 0.14 0 0.4 0.14 0 
0.42 0.14 0 0.44 0.14 0 0.46 0.14 0 
0.48 0.14 0 0.5 0.14 0 0.52 0.14 0 
0.54 0.14 0 0.56 0.14 0 0.58 0.14 0 
0.6 0.14 0 0.62 0.14 0 0.64 0.14 0 
0.66 0.14 0 0.68 0.14 0 0.7 0.14 0 
0.72 0.14 0 0.74 0.14 0 0.76 0.14 0 
0.78 0.14 0 0.8 0.14 0 0.82 0.14 0 
0.84 0.14 0 0.86 0.14 0 0.88 0.14 0 
0.9 0.14 0 0.92 0.14 0 0.94 0.14 0 
0.96 0.14 0 0.98 0.14 0 1 0.14 0 
0 0.16 0 0.02 0.16 0 0.04 0.16 0 
0.06 0.16 0 0.08 0.16 0 0.1 0.16 0 
0.12 0.16 0 0.14 0.16 0 0.16 0.16 0 
0.18 0.16 0 0.2 0.16 0 0.22 0.16 0 
0.24 0.16 0 0.26 0.16 0 0.28 0.16 0 
0.3 0.16 0 0.32 0.16 0 0.34 0.16 0 
0.36 0.16 0 0.38 0.16 0 0.4 0.16 0 
0.42 0.16 0 0.44 0.16 0 0.46 0.16 0 
0.48 0.16 0 0.5 0.16 0 0.52 0.16 0 
0.54 0.16 0 0.56 0.16 0 0.58 0.16 0 
0.6 0.16 0 0.62 0.16 0 0.64 0.16 0 
0.66 0.16 0 0.68 0.16 0 0.7 0.16 0 
0.72 0.16 0 0.74 0.16 0 0.76 0.16 0 
0.78 0.16 0 0.8 0.16 0 0.82 0.16 0 
0.84 0.16 0 0.86 0.16 0 0.88 0.16 0 
0.9 0.16 0 0.92 0.16 0 0.94 0.16 0 
0.96 0.16 0 0.98 0.16 0 1 0.16 0 
0 0.18 0 0.02 0.18 0 0.04 0.18 0 
0.06 0.18 0 0.08 0.18 0 0.1 0.18 0 
0.12 0.18 0 0.14 0.18 0 0.16 0.18 0 
0.18 0.18 0 0.2 0.18 0 0.22 0.18 0 
0.24 0.18 0 0.26 0.18 0 0.28 0.18 0 
0.3 0.18 0 0.32 0.18 0 0.34 0.18 0 
0.36 0.18 0 0.38 0.18 0 0.4 0.18 0 
0.42 0.18 0 0.44 0.18 0 0.46 0.18 0 
0.48 0.18 0 0.5 0.18 0 0.52 0.18 0 
0.54 0.18 0 0.56 0.18 0 0.58 0.18 0 
0.6 0.18 0 0.62 0.18 0 0.64 0.18 0 
0.66 0.18 0 0.68 0.18 0 0.7 0.18 0 
0.72 0.18 0 0.74 0.18 0 0.76 0.18 0 
0.78 0.18 0 0.8 0.18 0 0.82 0.18 0 
0.84 0.18 0 0.86 0.18 0 0.88 0.18 0 
0.9 0.18 0 0.92 0.18 0 0.94 0.18 0 
0.96 0.18 0 0.98 0.18 0 1 0.18 0 
0 0.2 0 0.02 0.2 0 0.04 0.2 0 
0.06 0.2 0 0.08 0.2 0 0.1 0.2 0 
0.12 0.2 0 0.14 0.2 0 0.16 0.2 0 
0.18 0.2 0 0.2 0.2 0 0.22 0.2 0 
0.24 0.2 0 0.26 0.2 0 0.28 0.2 0 
0.3 0.2 0 0.32 0.2 0 0.34 0.2 0 
0.36 0.2 0 0.38 0.2 0 0.4 0.2 0 
0.42 0.2 0 0.44 0.2 0 0.46 0.2 0 
0.48 0.2 0 0.5 0.2 0 0.52 0.2 0 
0.54 0.2 0 0.56 0.2 0 0.58 0.2 0 
0.6 0.2 0 0.62 0.2 0 0.64 0.2 0 
0.66 0.2 0 0.68 0.2 0 0.7 0.2 0 
0.72 0.2 0 0.74 0.2 0 0.76 0.2 0 
0.78 0.2 0 0.8 0.2 0 0.82 0.2 0 
0.84 0.2 0 0.86 0.2 0 0.88 0.2 0 
0.9 0.2 0 0.92 0.2 0 0.94 0.2 0 
0.96 0.2 0 0.98 0.2 0 1 0.2 0 
0 0.22 0 0.02 0.22 0 0.04 0.22 0 
0.06 0.22 0 0.08 0.22 0 0.1 0.22 0 
0.12 0.22 0 0.14 0.22 0 0.16 0.22 0 
0.18 0.22 0 0.2 0.22 0 0.22 0.22 0 
0.24 0.22 0 0.26 0.22 0 0.28 0.22 0 
0.3 0.22 0 0.32 0.22 0 0.34 0.22 0 
0.36 0.22 0 0.38 0.22 0 0.4 0.22 0 
0.42 0.22 0 0.44 0.22 0 0.46 0.22 0 
0.48 0.22 0 0.5 0.22 0 0.52 0.22 0 
0.54 0.22 0 0.56 0.22 0 0.58 0.22 0 
0.6 0.22 0 0.62 0.22 0 0.64 0.22 0 
0.66 0.22 0 0.68 0.22 0 0.7 0.22 0 
0.72 0.22 0 0.74 0.22 0 0.76 0.22 0 
0.78 0.22 0 0.8 0.22 0 0.82 0.22 0 
0.84 0.22 0 0.86 0.22 0 0.88 0.22 0 
0.9 0.22 0 0.92 0.22 0 0.94 0.22 0 
0.96 0.22 0 0.98 0.22 0 1 0.22 0 
0 0.24 0 0.02 0.24 0 0.04 0.24 0 
0.06 0.24 0 0.08 0.24 0 0.1 0.24 0 
0.12 0.24 0 0.14 0.24 0 0.16 0.24 0 
0.18 0.24 0 0.2 0.24 0 0.22 0.24 0 
0.24 0.24 0 0.26 0.24 0 0.28 0.24 0 
0.3 0.24 0 0.32 0.24 0 0.34 0.24 0 
0.36 0.24 0 0.38 0.24 0 0.4 0.24 0 
0.42 0.24 0 0.44 0.24 0 0.46 0.24 0 
0.48 0.24 0 0.5 0.24 0 0.52 0.24 0 
0.54 0.24 0 0.56 0.24 0 0.58 0.24 0 
0.6 0.24 0 0.62 0.24 0 0.64 0.24 0 
0.66 0.24 0 0.68 0.24 0 0.7 0.24 0 
0.72 0.24 0 0.74 0.24 0 0.76 0.24 0 
0.78 0.24 0 0.8 0.24 0 0.82 0.24 0 
0.84 0.24 0 0.86 0.24 0 0.88 0.24 0 
0.9 0.24 0 0.92 0.24 0 0.94 0.24 0 
0.96 0.24 0 0.98 0.24 0 1 0.24 0 
0 0.26 0 0.02 0.26 0 0.04 0.26 0 
0.06 0.26 0 0.08 0.26 0 0.1 0.26 0 
0.12 0.26 0 0.14 0.26 0 0.16 0.26 0 
0.18 0.26 0 0.2 0.26 0 0.22 0.26 0 
0.24 0.26 0 0.26 0.26 0 0.28 0.26 0 
0.3 0.26 0 0.32 0.26 0 0.34 0.26 0 
0.36 0.26 0 0.38 0.26 0 0.4 0.26 0 
0.42 0.26 0 0.44 0.26 0 0.46 0.26 0 
0.48 0.26 0 0.5 0.26 0 0.52 0.26 0 
0.54 0.26 0 0.56 0.26 0 0.58 0.26 0 
0.6 0.26 0 0.62 0.26 0 0.64 0.26 0 
0.66 0.26 0 0.68 0.26 0 0.7 0.26 0 
0.72 0.26 0 0.74 0.26 0 0.76 0.26 0 
0.78 0.26 0 0.8 0.26 0 0.82 0.26 0 
0.84 0.26 0 0.86 0.26 0 0.88 0.26 0 
0.9 0.26 0 0.92 0.26 0 0.94 0.26 0 
0.96 0.26 0 0.98 0.26 0 1 0.26 0 
0 0.28 0 0.02 0.28 0 0.04 0.28 0 
0.06 0.28 0 0.08 0.28 0 0.1 0.28 0 
0.12 0.28 0 0.14 0.28 0 0.16 0.28 0 
0.18 0.28 0 0.2 0.28 0 0.22 0.28 0 
0.24 0.28 0 0.26 0.28 0 0.28 0.28 0 
0.3 0.28 0 0.32 0.28 0 0.34 0.28 0 
0.36 0.28 0 0.38 0.28 0 0.4 0.28 0 
0.42 0.28 0 0.44 0.28 0 0.46 0.28 0 
0.48 0.28 0 0.5 0.28 0 0.52 0.28 0 
0.54 0.28 0 0.56 0.28 0 0.58 0.28 0 
0.6 0.28 0 0.62 0.28 0 0.64 0.28 0 
0.66 0.28 0 0.68 0.28 0 0.7 0.28 0 
0.72 0.28 0 0.74 0.28 0 0.76 0.28 0 
0.78 0.28 0 0.8 0.28 0 0.82 0.28 0 
0.84 0.28 0 0.86 0.28 0 0.88 0.28 0 
0.9 0.28 0 0.92 0.28 0 0.94 0.28 0 
0.96 0.28 0 0.98 0.28 0 1 0.28 0 
0 0.3 0 0.02 0.3 0 0.04 0.3 0 
0.06 0.3 0 0.08 0.3 0 0.1 0.3 0 
0.12 0.3 0 0.14 0.3 0 0.16 0.3 0 
0.18 0.3 0 0.2 0.3 0 0.22 0.3 0 
0.24 0.3 0 0.26 0.3 0 0.28 0.3 0 
0.3 0.3 0 0.32 0.3 0 0.34 0.3 0 
0.36 0.3 0 0.38 0.3 0 0.4 0.3 0 
0.42 0.3 0 0.44 0.3 0 0.46 0.3 0 
0.48 0.3 0 0.5 0.3 0 0.52 0.3 0 
0.54 0.3 0 0.56 0.3 0 0.58 0.3 0 
0.6 0.3 0 0.62 0.3 0 0.64 0.3 0 
0.66 0.3 0 0.68 0.3 0 0.7 0.3 0 
0.72 0.3 0 0.74 0.3 0 0.76 0.3 0 
0.78 0.3 0 0.8 0.3 0 0.82 0.3 0 
0.84 0.3 0 0.86 0.3 0 0.88 0.3 0 
0.9 0.3 0 0.92 0.3 0 0.94 0.3 0 
0.96 0.3 0 0.98 0.3 0 1 0.3 0 
0 0.32 0 0.02 0.32 0 0.04 0.32 0 
0.06 0.32 0 0.08 0.32 0 0.1 0.32 0 
0.12 0.32 0 0.14 0.32 0 0.16 0.32 0 
0.18 0.32 0 0.2 0.32 0 0.22 0.32 0 
0.24 0.32 0 0.26 0.32 0 0.28 0.32 0 
0.3 0.32 0 0.32 0.32 0 0.34 0.32 0 
0.36 0.32 0 0.38 0.32 0 0.4 0.32 0 
0.42 0.32 0 0.44 0.32 0 0.46 0.32 0 
0.48 0.32 0 0.5 0.32 0 0.52 0.32 0 
0.54 0.32 0 0.56 0.32 0 0.58 0.32 0 
[...]
CELL_DATA 2500
FIELD FieldData 2
pressure 1 2500 double
-0.0062846084567 -0.0062808041402 -0.0062972721218 -0.006335648214 -0.0063944608423 -0.006470874924 -0.0065626530601 -0.0066684148822 -0.0067868793479 
-0.0069181216201 -0.0070624089464 -0.0072203340559 -0.0073927149722 -0.0075789102952 -0.0077771127753 -0.0079835695212 -0.0081923646059 -0.0083954225572 
-0.0085826371423 -0.0087420165486 -0.0088599938822 -0.0089219443296 -0.0089128795655 -0.0088182166635 -0.0086247266941 -0.008321569844 -0.0079013758914 
-0.0073613239682 -0.0067043485308 -0.0059406531293 -0.0050896169831 -0.0041970088293 -0.003297022763 -0.0024323422305 -0.0016513236221 -0.0010036345366 
-0.00053456866048 -0.00027806054705 -0.00024915352193 -0.00043740898299 -0.00078895766955 -0.0012402046512 -0.0017201765031 -0.0021618637845 -0.0025195687927 
-0.0027798432183 -0.0029473481031 -0.0030335005768 -0.0030519609718 -0.0030234473144 -0.0062818557522 -0.0062792402098 -0.0062976284295 -0.0063366860694 
-0.0063937642342 -0.006466170191 -0.0065520368818 -0.006649867008 -0.0067584239373 -0.0068795705578 -0.0070136223101 -0.0071617467029 -0.0073248198786 
-0.0075025555359 -0.0076931707887 -0.0078931626198 -0.0080971570803 -0.0082977477598 -0.0084853788765 -0.0086484829391 -0.0087737673406 -0.0088466631874 
-0.0088520114541 -0.0087749477528 -0.0086018482945 -0.0083213253384 -0.0079251852368 -0.0074094417581 -0.0067752369758 -0.0060293650986 -0.0052161112749 
-0.0043532952362 -0.0034784351241 -0.0026355180544 -0.0018726490783 -0.0012386625627 -0.00077776034449 -0.00052262646513 -0.00048683284231 -0.00065789031502 
-0.00099344273663 -0.0014036787772 -0.0018399919011 -0.002238686075 -0.002556250827 -0.0027834434932 -0.0029284719657 -0.0030049501178 -0.0030251805424 
-0.0029959006093 -0.0062587069653 -0.0062593491257 -0.0062816843601 -0.006322465754 -0.0063784369948 -0.0064472581298 -0.0065267094578 -0.0066162763553 
-0.0067165241893 -0.0068290937155 -0.0069556399411 -0.0070980577111 -0.0072576442614 -0.0074344952111 -0.0076273687434 -0.0078334072375 -0.0080477339254 
-0.0082631371785 -0.0084700697239 -0.0086567058551 -0.0088091751876 -0.008912170672 -0.0089497287306 -0.0089061006035 -0.0087666866984 -0.0085189991775 
-0.0081536568925 -0.007665250136 -0.0070527332676 -0.0063399562337 -0.0055517535997 -0.0047060937476 -0.0038415438619 -0.0030022312833 -0.0022362741422 
-0.001592485995 -0.0011152800331 -0.00083801923288 -0.00077548389776 -0.00091673025727 -0.0012206069162 -0.0016173363764 -0.0020260469894 -0.0024005412404 
-0.0026898903841 -0.0028822237074 -0.0029980300027 -0.0030543842162 -0.0030642005268 -0.0030274985693 -0.0062137061756 -0.0062219329313 -0.0062496016864 
-0.0062924879278 -0.0063478499397 -0.0064131799472 -0.0064872698397 -0.0065710532143 -0.0066662351447 -0.0067753454888 -0.0069014117969 -0.0070471884768 
-0.0072145818224 -0.007404492465 -0.007616385 -0.0078476766788 -0.0080933163061 -0.0083456853523 -0.0085943957486 -0.0088263931022 -0.0090265315764 
-0.00917825889 -0.0092643628395 -0.0092679041489 -0.0091732173674 -0.0089669096396 -0.0086389420574 -0.008183560961 -0.0075997874652 -0.0069222753535 
-0.0061522045299 -0.0053177195861 -0.0044553531321 -0.0036080895157 -0.002823264076 -0.0021493183507 -0.0016310388336 -0.0013033215101 -0.0011839569446 
-0.0012666732441 -0.0015166929524 -0.0018723359823 -0.0022565177541 -0.002606720715 -0.0028828568185 -0.0030513603542 -0.0031414138908 -0.003176919718 
-0.0031747479949 -0.0031362653435 -0.0061492418387 -0.0061677007902 -0.0062012409155 -0.0062467750076 -0.0063018686781 -0.0063648985766 -0.0064368606129 
-0.0065197838302 -0.0066167314323 -0.0067318051001 -0.0068691587949 -0.0070323884734 -0.0072243933925 -0.0074467737576 -0.0076990096206 -0.0079779935233 
-0.0082778836601 -0.0085896506588 -0.008901125177 -0.0091975858094 -0.0094623168419 -0.0096772540432 -0.0098239222001 -0.0098844041742 -0.0098423387736 
-0.0096840807825 -0.0093998342654 -0.0089848421312 -0.0084411857903 -0.0077927866297 -0.0070425379874 -0.0062177706532 -0.0053529968819 -0.0044891412528 
-0.0036717843372 -0.002948306119 -0.0023636436244 -0.0019546375237 -0.0017433547655 -0.0017304950256 -0.0018908722305 -0.002173808202 -0.002511174205 
-0.0028331394454 -0.0030835674418 -0.0032516953868 -0.0033284408837 -0.0033527775789 -0.003345331796 -0.0033123495019 -0.006068803746 -0.0060989845855 
-0.0061390615197 -0.0061871927778 -0.0062427267628 -0.0063069948263 -0.0063823481967 -0.0064722635257 -0.0065816576081 -0.0067158685348 -0.0068799705546 
-0.0070786667879 -0.0073155049424 -0.0075918508102 -0.0079064016525 -0.0082549896566 -0.0086299032666 -0.0090199578944 -0.009411108767 -0.0097868201698 
-0.010128662375 -0.010417268309 -0.010633220381 -0.010758002665 -0.010775174026 -0.010671475521 -0.010437814606 -0.010070164365 -0.0095767381932 
-0.0089600472383 -0.0082324925933 -0.0074182529009 -0.0065487978491 -0.0056620022857 -0.0048007551148 -0.0040106139181 -0.0033362075189 -0.0028163350018 
-0.0024780415828 -0.0023305145191 -0.0023603606115 -0.0025303923342 -0.0027839619485 -0.0030554518485 -0.003285735931 -0.0034414772786 -0.0035278292494 
-0.0035585290264 -0.0035572406701 -0.0035359707442 -0.0059783968324 -0.0060215622401 -0.0060674536144 -0.0061185043857 -0.006177795539 -0.0062487018082 
-0.0063352476387 -0.0064429647971 -0.0065780638651 -0.0067467836168 -0.0069553575625 -0.007209078637 -0.0075110682286 -0.0078617585317 -0.0082586390978 
-0.0086953579493 -0.0091618449965 -0.0096449555677 -0.010128626897 -0.010594419819 -0.011022546707 -0.011392649705 -0.011684660328 -0.011880033631 
-0.011962782212 -0.011920434488 -0.011745032825 -0.011433942178 -0.010993091385 -0.010415228784 -0.0097150354422 -0.0089138941716 -0.008039749891 
-0.0071267198709 -0.0062141660888 -0.0053449413965 -0.0045626055098 -0.0039074774708 -0.0034116397739 -0.0030934626283 -0.0029527457826 -0.0029680638703 
-0.0030979608979 -0.0032873132723 -0.0034796943714 -0.0036351353381 -0.0037345581219 -0.0037799938656 -0.0037963303986 -0.0037913179762 -0.0058880422814 
-0.0059434336046 -0.0059952466606 -0.0060517250384 -0.0061194092864 -0.0062038985878 -0.0063115700771 -0.0064493137717 -0.0066242006577 -0.0068436728054 
-0.0071145268441 -0.0074415176497 -0.0078267684432 -0.0082694604812 -0.008764713094 -0.0093037289982 -0.0098744547162 -0.010461534636 -0.011046798603 
-0.011610365818 -0.012131304768 -0.012588421981 -0.012961562998 -0.013232566897 -0.013386141849 -0.013410827763 -0.01329972143 -0.013051175168 
-0.012665654126 -0.012132295586 -0.011464300827 -0.010680149708 -0.0098039773297 -0.0088655560951 -0.0078998556057 -0.0069460238718 -0.0060455382082 
-0.0052393204856 -0.0045638303019 -0.004046420553 -0.0037006239707 -0.0035224379635 -0.0034888737838 -0.0035601677993 -0.0036868815891 -0.0038218758691 
-0.0039320407043 -0.0040142957565 -0.0040586218664 -0.0040727737216 -0.0058109385667 -0.0058780525481 -0.0059370087223 -0.0060022614346 -0.0060838542459 
-0.0061902828885 -0.0063294726978 -0.0065091883687 -0.0067377816701 -0.0070232981004 -0.0073719809668 -0.0077875995487 -0.0082710747099 -0.0088191296987 
-0.0094244131233 -0.01007614785 -0.010759878793 -0.011457923701 -0.01215054161 -0.012816466749 -0.013433648595 -0.013980683081 -0.014437670141 
-0.014787002905 -0.015014307173 -0.015109016105 -0.015064884783 -0.014880771487 -0.014552573388 -0.014067121186 -0.013435635609 -0.012673563205 
-0.011800923482 -0.010842579579 -0.0098283288819 -0.0087925973873 -0.007773522957 -0.0068112419726 -0.0059452318292 -0.0052107351558 -0.0046345503077 
-0.0042307547588 -0.0039971711761 -0.0039137120762 -0.0039440272891 -0.0040422167501 -0.0041655063686 -0.0042779877666 -0.0043504924245 -0.0043852372986 
-0.005763960353 -0.00584245162 -0.005910243311 -0.0059880227463 -0.006089916311 -0.0062264409736 -0.0064065178826 -0.0066393212692 -0.0069339412123 
-0.0072979663718 -0.0077367591563 -0.0082530157022 -0.00884520271 -0.0095075863712 -0.010230853537 -0.011001651862 -0.011802967781 -0.012615380014 
-0.013417448406 -0.014186437038 -0.014899922649 -0.015536546073 -0.016076779819 -0.016503860828 -0.01680427427 -0.016968114167 -0.016989695448 
-0.016868053029 -0.016596273821 -0.016160037651 -0.015568730958 -0.0148346951 -0.013973654166 -0.013005231969 -0.011953416322 -0.01084689593 
-0.0097190953905 -0.0086076546034 -0.0075531127543 -0.0065966331018 -0.0057767131663 -0.005124937305 -0.0046610535497 -0.0043879715002 -0.0042878156885 
-0.0043213069241 -0.0044339154027 -0.0045678581306 -0.0046805177137 -0.0047393270065 -0.0057655324493 -0.0058548726765 -0.0059331718635 -0.0060277104268 
-0.0061557389588 -0.0063290926773 -0.0065582527458 -0.0068533575251 -0.0072232610576 -0.0076748811393 -0.0082127065348 -0.0088371031222 -0.0095441385392 
-0.010326158182 -0.011171150028 -0.012062967423 -0.012982668151 -0.013908781754 -0.014818002132 -0.015687008531 -0.016493135262 -0.017215144351 
-0.017834240646 -0.018334514615 -0.018703187241 -0.018931140308 -0.019013211753 -0.018948472672 -0.01872917342 -0.018341456598 -0.017792983813 
-0.017093136795 -0.016253444851 -0.015288161143 -0.014215037101 -0.013056224371 -0.011839123109 -0.010596987401 -0.009369010309 -0.0081995599556 
-0.0071362004261 -0.0062261161731 -0.0055106024111 -0.0050175154067 -0.004752202398 -0.0046892601334 -0.0047710508189 -0.0049208606823 -0.0050680784583 
-0.0051509781736 -0.0058334318359 -0.0059324640311 -0.0060230489904 -0.0061378945249 -0.0062963493033 -0.0065119741888 -0.0067964762747 -0.0071600765154 
-0.0076112647781 -0.0081563501651 -0.0087977747921 -0.0095336231647 -0.010358128762 -0.011260906947 -0.012226938494 -0.013237957697 -0.014272645887 
-0.015307238825 -0.016317585388 -0.017279772629 -0.018170916914 -0.018970328046 -0.019659998194 -0.020224761467 -0.020652863015 -0.020936137858 
-0.021070055653 -0.021053972816 -0.020880717114 -0.020538809595 -0.020034427202 -0.019374315561 -0.01856607971 -0.017618805648 -0.016543989503 
-0.015356764903 -0.014077403328 -0.01273293591 -0.011358602285 -0.0099987184641 -0.0087063796145 -0.0075411928962 -0.0065640802248 -0.0058282420979 
-0.0053659626419 -0.0051730847152 -0.0051980767604 -0.0053495562468 -0.0055250971232 -0.0056336034847 -0.0059822502404 -0.0060895436149 -0.0061935845843 
-0.0063308669474 -0.0065227938702 -0.0067843806804 -0.0071277452053 -0.0075630885532 -0.0080986163848 -0.0087390454784 -0.0094847381092 -0.010332101176 
-0.011272739315 -0.012293122021 -0.013375944145 -0.014500311312 -0.015642188481 -0.016776674426 -0.017878648425 -0.018923560035 -0.019888797961 
-0.020754294017 -0.021502639215 -0.022119837376 -0.022595439772 -0.02292243695 -0.023097357243 -0.023120023749 -0.022984641656 -0.022684117577 
-0.022223372797 -0.021606923163 -0.020839058694 -0.019924308428 -0.018868294503 -0.017679103229 -0.016369206029 -0.014957863125 -0.013473817132 
-0.011957851358 -0.010464438897 -0.0090613581771 -0.0078257439803 -0.0068348056209 -0.0061497961633 -0.0057939512345 -0.0057308828293 -0.0058607922889 
-0.0060509525185 -0.0061965248804 -0.0062219053384 -0.006335645295 -0.0064532200838 -0.0066139980036 -0.0068410509956 -0.0071500221911 -0.007553265865 
-0.0080610404102 -0.0086805345699 -0.0094146998503 -0.010262458163 -0.011217852297 -0.012269334174 -0.013400967401 -0.014592694872 -0.015820538132 
-0.017059031501 -0.018281947524 -0.019463058783 -0.02057774374 -0.021603736589 -0.022521273667 -0.02331411697 -0.023969739063 -0.024479162949 
-0.024837033638 -0.025041189279 -0.025092099593 -0.024985819537 -0.024720941978 -0.024301380146 -0.023730074538 -0.023008864286 -0.022138664268 
-0.021120098036 -0.019954739715 -0.018647146396 -0.017207789716 -0.015656783496 -0.014028018366 -0.012372906573 -0.010762383592 -0.0092851150846 
-0.0080392632814 -0.0071151868902 -0.0065682885042 -0.0063872339726 -0.006476548094 -0.0066844192661 -0.0068589088356 -0.0065566736615 -0.0066744285239 
-0.0068048185763 -0.0069892130571 -0.0072513560886 -0.0076071350821 -0.0080691931662 -0.0086473479557 -0.009347456527 -0.010171335128 -0.01111597984 
-0.01217244668 -0.013326733162 -0.014560197836 -0.015849447064 -0.017168800123 -0.018491190996 -0.019788826112 -0.021035020278 -0.02220516034 
-0.023276883015 -0.024231439354 -0.025054022127 -0.025733643293 -0.026263301475 -0.026639508641 -0.026861543649 -0.026930742696 -0.026845214671 
-0.026609383941 -0.026226583122 -0.025698921505 -0.025026839328 -0.024208919493 -0.023242094663 -0.022122516042 -0.020847427387 -0.019418258887 
-0.01784502318 -0.016151824272 -0.014382726203 -0.012606477425 -0.010917638962 -0.0094306965558 -0.0082632335547 -0.0075055181523 -0.0071795098445 
-0.007205263545 -0.0074155442003 -0.0076220669451 -0.0069847325035 -0.0071037192592 -0.0072457791608 -0.0074528388844 -0.0077485510446 -0.0081490033466 
-0.0086667894501 -0.0093108737281 -0.010086313033 -0.010993574795 -0.01202702528 -0.013175318019 -0.014421964766 -0.015744920342 -0.017118850942 
-0.018516349494 -0.019908392555 -0.021266340873 -0.022563188001 -0.023773767057 -0.024876443538 -0.025853720253 -0.026692183208 -0.027382885446 
-0.027920937815 -0.028304667825 -0.028534865014 -0.028613891149 -0.028541959048 -0.028328284466 -0.027976107618 -0.027487508365 -0.026862678196 
-0.026099309106 -0.025192269647 -0.024133940288 -0.022915578955 -0.021530156216 -0.019977032165 -0.018268493687 -0.016437542319 -0.01454546997 
-0.012686538178 -0.010985632168 -0.0095836478206 -0.0086058766724 -0.0081134350508 -0.00805289485 -0.0082509017158 -0.0084872346921 -0.0074985886946 
-0.0076161968854 -0.0077683390422 -0.0079961364108 -0.0083228536686 -0.0087644995659 -0.0093331445336 -0.010037243584 -0.010881120523 -0.0118631503 
-0.012975470892 -0.014204605144 -0.015530835448 -0.016929988582 -0.018375058761 -0.019836425101 -0.021283869298 -0.022688161769 -0.024021300082 
-0.025258474332 -0.026379054776 -0.027366645943 -0.028209767054 -0.02890158528 -0.029439066246 -0.029822294008 -0.030053544373 -0.030136056309 
-0.030072198575 -0.029874006963 -0.029545127325 -0.029088361889 -0.028504735372 -0.027792478355 -0.02694620134 -0.025956517597 -0.024810631148 
-0.023494555357 -0.021997560334 -0.020319183562 -0.01847856109 -0.016524810516 -0.014545648537 -0.012669554322 -0.011055022142 -0.0098599583983 
-0.0091878160618 -0.0090213848541 -0.0091925270046 -0.0094534694821 -0.0080862820572 -0.0082001640805 -0.0083603233801 -0.0086063226368 -0.0089607113533 
-0.0094388825056 -0.01005248376 -0.010809719148 -0.011713476774 -0.012760196616 -0.013940321344 -0.015237567195 -0.016629985781 -0.018091947713 
-0.019594177828 -0.021105587726 -0.022595188709 -0.024032410478 -0.025389191583 -0.026641456607 -0.027769321577 -0.028758101245 -0.029598283794 
-0.030284763559 -0.030816264774 -0.03119442208 -0.031422504323 -0.031504621908 -0.031444978147 -0.03125621537 -0.030942812455 -0.030508896804 
-0.029957166786 -0.02928765939 -0.028496421174 -0.027574402356 -0.026507150175 -0.025276029172 -0.023861837971 -0.022251680791 -0.020449308502 
-0.01848796248 -0.01644301118 -0.014439350665 -0.01264600579 -0.011248775979 -0.010393808106 -0.010107717361 -0.010240031871 -0.010523503025 
-0.0087326129157 -0.0088405312251 -0.0090063946386 -0.0092677148361 -0.0096457384252 -0.010155089081 -0.010807285449 -0.011609709891 -0.012563678522 
-0.013664377833 -0.014900057288 -0.016252244975 -0.017697837935 -0.019209140543 -0.020755239105 -0.02230420414 -0.023823536213 -0.025282170362 
-0.026652537369 -0.027910937235 -0.029038885479 -0.030023455085 -0.030856682997 -0.031535107681 -0.032058907964 -0.032430562126 -0.032654132824 
-0.032734302757 -0.032676358042 -0.032491869384 -0.032186410067 -0.031765720599 -0.031234754947 -0.030596271166 -0.029849116064 -0.028986538426 
-0.02799494495 -0.026853814529 -0.025538027304 -0.024023911888 -0.022299788774 -0.020380664633 -0.018324708492 -0.016246297163 -0.014317141421 
-0.012744269383 -0.011713963054 -0.01130114053 -0.011383948142 -0.011682501339 -0.0094202230683 -0.0095201559366 -0.0096893501043 -0.0099627508213 
-0.01035995517 -0.010895004564 -0.011578887587 -0.012417735212 -0.013411958084 -0.014555241389 -0.015833874814 -0.017228523038 -0.018714491627 
-0.020262399179 -0.021840539603 -0.023415519193 -0.024953947031 -0.02642505919 -0.02780133008 -0.029060079823 -0.030184342297 -0.031162539696 
-0.031988189609 -0.032659191136 -0.033176380524 -0.033542808372 -0.033762763344 -0.033841101449 -0.033783413221 -0.033599190748 -0.033295015382 
-0.032878386805 -0.032356793121 -0.031736189551 -0.031019151267 -0.030202763096 -0.02927647466 -0.028220757442 -0.027007798472 -0.025605927646 
-0.023989468594 -0.022154481727 -0.02013852971 -0.018039352207 -0.016023326545 -0.014310614875 -0.013122362826 -0.012582904889 -0.012608191971 
-0.012914632779 -0.01013088155 -0.010221093516 -0.010391152022 -0.010673121547 -0.011085045571 -0.011640151571 -0.012348248424 -0.013214662902 
-0.014238907019 -0.015413093152 -0.016722873714 -0.018147984658 -0.019662165123 -0.021235384727 -0.022834743449 -0.024425686507 -0.025974978869 
-0.02745168389 -0.028828885594 -0.030085151778 -0.031204641024 -0.032177052336 -0.032997206289 -0.033663548217 -0.034177362257 -0.034541604302 
-0.034760170853 -0.034837710324 -0.034779726332 -0.034592787485 -0.034284498529 -0.033864098243 -0.033341546261 -0.032726142999 -0.032024639886 
-0.031238797997 -0.030362746396 -0.029380541589 -0.02826500389 -0.026980013453 -0.025488755388 -0.023769388971 -0.02183718649 -0.01976845188 
-0.017716704075 -0.015906397101 -0.014586072628 -0.013927339608 -0.013890602926 -0.014198289498 -0.010846674737 -0.010925634033 -0.011093878193 
-0.011380884168 -0.011803119352 -0.012372294461 -0.013097097204 -0.013982235612 -0.01502606694 -0.016220203336 -0.017550039986 -0.01899408806 
-0.020525621553 -0.022113871136 -0.023724728985 -0.025323683937 -0.026877314482 -0.028354900104 -0.029730483914 -0.030983519411 -0.032099179065 
-0.033068388734 -0.033886483536 -0.034552363587 -0.035067080574 -0.035432871863 -0.035652818708 -0.035731045899 -0.035672528385 -0.035480848143 
-0.035164502916 -0.034734242598 -0.034202370582 -0.033581424633 -0.032882205886 -0.032111414926 -0.031268782255 -0.03034376663 -0.029312822476 
-0.028139301119 -0.026779133414 -0.025195193085 -0.023380665754 -0.021387387617 -0.019349613275 -0.017487230557 -0.016067199075 -0.015303338209 
-0.015204089267 -0.015507468623 -0.011551191012 -0.011616920024 -0.011780586844 -0.012069210316 -0.012497183328 -0.013074376162 -0.013808556653 
-0.014703487568 -0.015757026382 -0.016961010793 -0.018300159367 -0.019752689695 -0.021291696043 -0.022885427508 -0.024499758728 -0.026100199533 
-0.027653262337 -0.029128928784 -0.030501912782 -0.031752368004 -0.032866526004 -0.033835810077 -0.03465604561 -0.035325963963 -0.035845879502 
-0.036216912761 -0.036441042696 -0.03652113654 -0.036462057022 -0.036264406975 -0.03593736285 -0.035493060605 -0.03494596283 -0.034311408648 
-0.033603857763 -0.032834720512 -0.032009422421 -0.031123818417 -0.030160309559 -0.029085348911 -0.027851974869 -0.026411685945 -0.024737619724 
-0.022856085712 -0.020877289731 -0.019008415746 -0.017525154469 -0.016676098117 -0.01651805582 -0.016813114184 -0.012230948771 -0.012278958159 
-0.012435829807 -0.012722793291 -0.013151811234 -0.013731212908 -0.014467485418 -0.015363624975 -0.016417840373 -0.017621889903 -0.018960362339 
-0.020411825809 -0.021948868472 -0.023539750357 -0.025150740891 -0.026747237402 -0.028296271287 -0.029768382693 -0.031138688184 -0.032388127118 
-0.033503358223 -0.034476235283 -0.035302563438 -0.035980493291 -0.036509271461 -0.03688879054 -0.037119139612 -0.037201934705 -0.037142334585 
-0.036938031617 -0.036598804786 -0.036138148614 -0.035572313423 -0.034918976346 -0.034195728708 -0.033417990838 -0.032596453016 -0.03173358833 
-0.030819021889 -0.029825163892 -0.028706497812 -0.0274078281 -0.025885770906 -0.024142034708 -0.022259980055 -0.02042731373 -0.018918864896 
-0.018008896776 -0.017799804469 -0.018084309064 -0.012868143276 -0.012906357801 -0.013046158631 -0.013328300433 -0.013753788444 -0.014329858602 