# vtk DataFile Version 4.1
vtk output
ASCII
DATASET STRUCTURED_GRID
DIMENSIONS 51 51 1
POINTS 2601 float
0 0 0 0.02 0 0 0.04 0 0 
0.06 0 0 0.08 0 0 0.1 0 0 
0.12 0 0 0.14 0 0 0.16 0 0 
0.18 0 0 0.2 0 0 0.22 0 0 
0.24 0 0 0.26 0 0 0.28 0 0 
0.3 0 0 0.32 0 0 0.34 0 0 
0.36 0 0 0.38 0 0 0.4 0 0 
0.42 0 0 0.44 0 0 0.46 0 0 
0.48 0 0 0.5 0 0 0.52 0 0 
0.54 0 0 0.56 0 0 0.58 0 0 
0.6 0 0 0.62 0 0 0.64 0 0 
0.66 0 0 0.68 0 0 0.7 0 0 
0.72 0 0 0.74 0 0 0.76 0 0 
0.78 0 0 0.8 0 0 0.82 0 0 
0.84 0 0 0.86 0 0 0.88 0 0 
0.9 0 0 0.92 0 0 0.94 0 0 
0.96 0 0 0.98 0 0 1 0 0 
0 0.02 0 0.02 0.02 0 0.04 0.02 0 
0.06 0.02 0 0.08 0.02 0 0.1 0.02 0 
0.12 0.02 0 0.14 0.02 0 0.16 0.02 0 
0.18 0.02 0 0.2 0.02 0 0.22 0.02 0 
0.24 0.02 0 0.26 0.02 0 0.28 0.02 0 
0.3 0.02 0 0.32 0.02 0 0.34 0.02 0 
0.36 0.02 0 0.38 0.02 0 0.4 0.02 0 
0.42 0.02 0 0.44 0.02 0 0.46 0.02 0 
0.48 0.02 0 0.5 0.02 0 0.52 0.02 0 
0.54 0.02 0 0.56 0.02 0 0.58 0.02 0 
0.6 0.02 0 0.62 0.02 0 0.64 0.02 0 
0.66 0.02 0 0.68 0.02 0 0.7 0.02 0 
0.72 0.02 0 0.74 0.02 0 0.76 0.02 0 
0.78 0.02 0 0.8 0.02 0 0.82 0.02 0 
0.84 0.02 0 0.86 0.02 0 0.88 0.02 0 
0.9 0.02 0 0.92 0.02 0 0.94 0.02 0 
0.96 0.02 0 0.98 0.02 0 1 0.02 0 
0 0.04 0 0.02 0.04 0 0.04 0.04 0 
0.06 0.04 0 0.08 0.04 0 0.1 0.04 0 
0.12 0.04 0 0.14 0.04 0 0.16 0.04 0 
0.18 0.04 0 0.2 0.04 0 0.22 0.04 0 
0.24 0.04 0 0.26 0.04 0 0.28 0.04 0 
0.3 0.04 0 0.32 0.04 0 0.34 0.04 0 
0.36 0.04 0 0.38 0.04 0 0.4 0.04 0 
0.42 0.04 0 0.44 0.04 0 0.46 0.04 0 
0.48 0.04 0 0.5 0.04 0 0.52 0.04 0 
0.54 0.04 0 0.56 0.04 0 0.58 0.04 0 
0.6 0.04 0 0.62 0.04 0 0.64 0.04 0 
0.66 0.04 0 0.68 0.04 0 0.7 0.04 0 
0.72 0.04 0 0.74 0.04 0 0.76 0.04 0 
0.78 0.04 0 0.8 0.04 0 0.82 0.04 0 
0.84 0.04 0 0.86 0.04 0 0.88 0.04 0 
0.9 0.04 0 0.92 0.04 0 0.94 0.04 0 
0.96 0.04 0 0.98 0.04 0 1 0.04 0 
0 0.06 0 0.02 0.06 0 0.04 0.06 0 
0.06 0.06 0 0.08 0.06 0 0.1 0.06 0 
0.12 0.06 0 0.14 0.06 0 0.16 0.06 0 
0.18 0.06 0 0.2 0.06 0 0.22 0.06 0 
0.24 0.06 0 0.26 0.06 0 0.28 0.06 0 
0.3 0.06 0 0.32 0.06 0 0.34 0.06 0 
0.36 0.06 0 0.38 0.06 0 0.4 0.06 0 
0.42 0.06 0 0.44 0.06 0 0.46 0.06 0 
0.48 0.06 0 0.5 0.06 0 0.52 0.06 0 
0.54 0.06 0 0.56 0.06 0 0.58 0.06 0 
0.6 0.06 0 0.62 0.06 0 0.64 0.06 0 
0.66 0.06 0 0.68 0.06 0 0.7 0.06 0 
0.72 0.06 0 0.74 0.06 0 0.76 0.06 0 
0.78 0.06 0 0.8 0.06 0 0.82 0.06 0 
0.84 0.06 0 0.86 0.06 0 0.88 0.06 0 
0.9 0.06 0 0.92 0.06 0 0.94 0.06 0 
0.96 0.06 0 0.98 0.06 0 1 0.06 0 
0 0.08 0 0.02 0.08 0 0.04 0.08 0 
0.06 0.08 0 0.08 0.08 0 0.1 0.08 0 
0.12 0.08 0 0.14 0.08 0 0.16 0.08 0 
0.18 0.08 0 0.2 0.08 0 0.22 0.08 0 
0.24 0.08 0 0.26 0.08 0 0.28 0.08 0 
0.3 0.08 0 0.32 0.08 0 0.34 0.08 0 
0.36 0.08 0 0.38 0.08 0 0.4 0.08 0 
0.42 0.08 0 0.44 0.08 0 0.46 0.08 0 
0.48 0.08 0 0.5 0.08 0 0.52 0.08 0 
0.54 0.08 0 0.56 0.08 0 0.58 0.08 0 
0.6 0.08 0 0.62 0.08 0 0.64 0.08 0 
0.66 0.08 0 0.68 0.08 0 0.7 0.08 0 
0.72 0.08 0 0.74 0.08 0 0.76 0.08 0 
0.78 0.08 0 0.8 0.08 0 0.82 0.08 0 
0.84 0.08 0 0.86 0.08 0 0.88 0.08 0 
0.9 0.08 0 0.92 0.08 0 0.94 0.08 0 
0.96 0.08 0 0.98 0.08 0 1 0.08 0 
0 0.1 0 0.02 0.1 0 0.04 0.1 0 
0.06 0.1 0 0.08 0.1 0 0.1 0.1 0 
0.12 0.1 0 0.14 0.1 0 0.16 0.1 0 
0.18 0.1 0 0.2 0.1 0 0.22 0.1 0 
0.24 0.1 0 0.26 0.1 0 0.28 0.1 0 
0.3 0.1 0 0.32 0.1 0 0.34 0.1 0 
0.36 0.1 0 0.38 0.1 0 0.4 0.1 0 
0.42 0.1 0 0.44 0.1 0 0.46 0.1 0 
0.48 0.1 0 0.5 0.1 0 0.52 0.1 0 
0.54 0.1 0 0.56 0.1 0 0.58 0.1 0 
0.6 0.1 0 0.62 0.1 0 0.64 0.1 0 
0.66 0.1 0 0.68 0.1 0 0.7 0.1 0 
0.72 0.1 0 0.74 0.1 0 0.76 0.1 0 
0.78 0.1 0 0.8 0.1 0 0.82 0.1 0 
0.84 0.1 0 0.86 0.1 0 0.88 0.1 0 
0.9 0.1 0 0.92 0.1 0 0.94 0.1 0 
0.96 0.1 0 0.98 0.1 0 1 0.1 0 
0 0.12 0 0.02 0.12 0 0.04 0.12 0 
0.06 0.12 0 0.08 0.12 0 0.1 0.12 0 
0.12 0.12 0 0.14 0.12 0 0.16 0.12 0 
0.18 0.12 0 0.2 0.12 0 0.22 0.12 0 
0.24 0.12 0 0.26 0.12 0 0.28 0.12 0 
0.3 0.12 0 0.32 0.12 0 0.34 0.12 0 
0.36 0.12 0 0.38 0.12 0 0.4 0.12 0 
0.42 0.12 0 0.44 0.12 0 0.46 0.12 0 
0.48 0.12 0 0.5 0.12 0 0.52 0.12 0 
0.54 0.12 0 0.56 0.12 0 0.58 0.12 0 
0.6 0.12 0 0.62 0.12 0 0.64 0.12 0 
0.66 0.12 0 0.68 0.12 0 0.7 0.12 0 
0.72 0.12 0 0.74 0.12 0 0.76 0.12 0 
0.78 0.12 0 0.8 0.12 0 0.82 0.12 0 
0.84 0.12 0 0.86 0.12 0 0.88 0.12 0 
0.9 0.12 0 0.92 0.12 0 0.94 0.12 0 
0.96 0.12 0 0.98 0.12 0 1 0.12 0 
0 0.14 0 0.02 0.14 0 0.04 0.14 0 
0.06 0.14 0 0.08 0.14 0 0.1 0.14 0 
0.12 0.14 0 0.14 0.14 0 0.16 0.14 0 
0.18 0.14 0 0.2 0.14 0 0.22 0.14 0 
0.24 0.14 0 0.26 0.14 0 0.28 0.14 0 
0.3 0.14 0 0.32 0.14 0 0.34 0.14 0 
0.36 0.14 0 0.38 0.14 0 0.4 0.14 0 
0.42 0.14 0 0.44 0.14 0 0.46 0.14 0 
0.48 0.14 0 0.5 0.14 0 0.52 0.14 0 
0.54 0.14 0 0.56 0.14 0 0.58 0.14 0 
0.6 0.14 0 0.62 0.14 0 0.64 0.14 0 
0.66 0.14 0 0.68 0.14 0 0.7 0.14 0 
0.72 0.14 0 0.74 0.14 0 0.76 0.14 0 
0.78 0.14 0 0.8 0.14 0 0.82 0.14 0 
0.84 0.14 0 0.86 0.14 0 0.88 0.14 0 
0.9 0.14 0 0.92 0.14 0 0.94 0.14 0 
0.96 0.14 0 0.98 0.14 0 1 0.14 0 
0 0.16 0 0.02 0.16 0 0.04 0.16 0 
0.06 0.16 0 0.08 0.16 0 0.1 0.16 0 
0.12 0.16 0 0.14 0.16 0 0.16 0.16 0 
0.18 0.16 0 0.2 0.16 0 0.22 0.16 0 
0.24 0.16 0 0.26 0.16 0 0.28 0.16 0 
0.3 0.16 0 0.32 0.16 0 0.34 0.16 0 
0.36 0.16 0 0.38 0.16 0 0.4 0.16 0 
0.42 0.16 0 0.44 0.16 0 0.46 0.16 0 
0.48 0.16 0 0.5 0.16 0 0.52 0.16 0 
0.54 0.16 0 0.56 0.16 0 0.58 0.16 0 
0.6 0.16 0 0.62 0.16 0 0.64 0.16 0 
0.66 0.16 0 0.68 0.16 0 0.7 0.16 0 
0.72 0.16 0 0.74 0.16 0 0.76 0.16 0 
0.78 0.16 0 0.8 0.16 0 0.82 0.16 0 
0.84 0.16 0 0.86 0.16 0 0.88 0.16 0 
0.9 0.16 0 0.92 0.16 0 0.94 0.16 0 
0.96 0.16 0 0.98 0.16 0 1 0.16 0 
0 0.18 0 0.02 0.18 0 0.04 0.18 0 
0.06 0.18 0 0.08 0.18 0 0.1 0.18 0 
0.12 0.18 0 0.14 0.18 0 0.16 0.18 0 
0.18 0.18 0 0.2 0.18 0 0.22 0.18 0 
0.24 0.18 0 0.26 0.18 0 0.28 0.18 0 
0.3 0.18 0 0.32 0.18 0 0.34 0.18 0 
0.36 0.18 0 0.38 0.18 0 0.4 0.18 0 
0.42 0.18 0 0.44 0.18 0 0.46 0.18 0 
0.48 0.18 0 0.5 0.18 0 0.52 0.18 0 
0.54 0.18 0 0.56 0.18 0 0.58 0.18 0 
0.6 0.18 0 0.62 0.18 0 0.64 0.18 0 
0.66 0.18 0 0.68 0.18 0 0.7 0.18 0 
0.72 0.18 0 0.74 0.18 0 0.76 0.18 0 
0.78 0.18 0 0.8 0.18 0 0.82 0.18 0 
0.84 0.18 0 0.86 0.18 0 0.88 0.18 0 
0.9 0.18 0 0.92 0.18 0 0.94 0.18 0 
0.96 0.18 0 0.98 0.18 0 1 0.18 0 
0 0.2 0 0.02 0.2 0 0.04 0.2 0 
0.06 0.2 0 0.08 0.2 0 0.1 0.2 0 
0.12 0.2 0 0.14 0.2 0 0.16 0.2 0 
0.18 0.2 0 0.2 0.2 0 0.22 0.2 0 
0.24 0.2 0 0.26 0.2 0 0.28 0.2 0 
0.3 0.2 0 0.32 0.2 0 0.34 0.2 0 
0.36 0.2 0 0.38 0.2 0 0.4 0.2 0 
0.42 0.2 0 0.44 0.2 0 0.46 0.2 0 
0.48 0.2 0 0.5 0.2 0 0.52 0.2 0 
0.54 0.2 0 0.56 0.2 0 0.58 0.2 0 
0.6 0.2 0 0.62 0.2 0 0.64 0.2 0 
0.66 0.2 0 0.68 0.2 0 0.7 0.2 0 
0.72 0.2 0 0.74 0.2 0 0.76 0.2 0 
0.78 0.2 0 0.8 0.2 0 0.82 0.2 0 
0.84 0.2 0 0.86 0.2 0 0.88 0.2 0 
0.9 0.2 0 0.92 0.2 0 0.94 0.2 0 
0.96 0.2 0 0.98 0.2 0 1 0.2 0 
0 0.22 0 0.02 0.22 0 0.04 0.22 0 
0.06 0.22 0 0.08 0.22 0 0.1 0.22 0 
0.12 0.22 0 0.14 0.22 0 0.16 0.22 0 
0.18 0.22 0 0.2 0.22 0 0.22 0.22 0 
0.24 0.22 0 0.26 0.22 0 0.28 0.22 0 
0.3 0.22 0 0.32 0.22 0 0.34 0.22 0 
0.36 0.22 0 0.38 0.22 0 0.4 0.22 0 
0.42 0.22 0 0.44 0.22 0 0.46 0.22 0 
0.48 0.22 0 0.5 0.22 0 0.52 0.22 0 
0.54 0.22 0 0.56 0.22 0 0.58 0.22 0 
0.6 0.22 0 0.62 0.22 0 0.64 0.22 0 
0.66 0.22 0 0.68 0.22 0 0.7 0.22 0 
0.72 0.22 0 0.74 0.22 0 0.76 0.22 0 
0.78 0.22 0 0.8 0.22 0 0.82 0.22 0 
0.84 0.22 0 0.86 0.22 0 0.88 0.22 0 
0.9 0.22 0 0.92 0.22 0 0.94 0.22 0 
0.96 0.22 0 0.98 0.22 0 1 0.22 0 
0 0.24 0 0.02 0.24 0 0.04 0.24 0 
0.06 0.24 0 0.08 0.24 0 0.1 0.24 0 
0.12 0.24 0 0.14 0.24 0 0.16 0.24 0 
0.18 0.24 0 0.2 0.24 0 0.22 0.24 0 
0.24 0.24 0 0.26 0.24 0 0.28 0.24 0 
0.3 0.24 0 0.32 0.24 0 0.34 0.24 0 
0.36 0.24 0 0.38 0.24 0 0.4 0.24 0 
0.42 0.24 0 0.44 0.24 0 0.46 0.24 0 
0.48 0.24 0 0.5 0.24 0 0.52 0.24 0 
0.54 0.24 0 0.56 0.24 0 0.58 0.24 0 
0.6 0.24 0 0.62 0.24 0 0.64 0.24 0 
0.66 0.24 0 0.68 0.24 0 0.7 0.24 0 
0.72 0.24 0 0.74 0.24 0 0.76 0.24 0 
0.78 0.24 0 0.8 0.24 0 0.82 0.24 0 
0.84 0.24 0 0.86 0.24 0 0.88 0.24 0 
0.9 0.24 0 0.92 0.24 0 0.94 0.24 0 
0.96 0.24 0 0.98 0.24 0 1 0.24 0 
0 0.26 0 0.02 0.26 0 0.04 0.26 0 
0.06 0.26 0 0.08 0.26 0 0.1 0.26 0 
0.12 0.26 0 0.14 0.26 0 0.16 0.26 0 
0.18 0.26 0 0.2 0.26 0 0.22 0.26 0 
0.24 0.26 0 0.26 0.26 0 0.28 0.26 0 
0.3 0.26 0 0.32 0.26 0 0.34 0.26 0 
0.36 0.26 0 0.38 0.26 0 0.4 0.26 0 
0.42 0.26 0 0.44 0.26 0 0.46 0.26 0 
0.48 0.26 0 0.5 0.26 0 0.52 0.26 0 
0.54 0.26 0 0.56 0.26 0 0.58 0.26 0 
0.6 0.26 0 0.62 0.26 0 0.64 0.26 0 
0.66 0.26 0 0.68 0.26 0 0.7 0.26 0 
0.72 0.26 0 0.74 0.26 0 0.76 0.26 0 
0.78 0.26 0 0.8 0.26 0 0.82 0.26 0 
0.84 0.26 0 0.86 0.26 0 0.88 0.26 0 
0.9 0.26 0 0.92 0.26 0 0.94 0.26 0 
0.96 0.26 0 0.98 0.26 0 1 0.26 0 
0 0.28 0 0.02 0.28 0 0.04 0.28 0 
0.06 0.28 0 0.08 0.28 0 0.1 0.28 0 
0.12 0.28 0 0.14 0.28 0 0.16 0.28 0 
0.18 0.28 0 0.2 0.28 0 0.22 0.28 0 
0.24 0.28 0 0.26 0.28 0 0.28 0.28 0 
0.3 0.28 0 0.32 0.28 0 0.34 0.28 0 
0.36 0.28 0 0.38 0.28 0 0.4 0.28 0 
0.42 0.28 0 0.44 0.28 0 0.46 0.28 0 
0.48 0.28 0 0.5 0.28 0 0.52 0.28 0 
0.54 0.28 0 0.56 0.28 0 0.58 0.28 0 
0.6 0.28 0 0.62 0.28 0 0.64 0.28 0 
0.66 0.28 0 0.68 0.28 0 0.7 0.28 0 
0.72 0.28 0 0.74 0.28 0 0.76 0.28 0 
0.78 0.28 0 0.8 0.28 0 0.82 0.28 0 
0.84 0.28 0 0.86 0.28 0 0.88 0.28 0 
0.9 0.28 0 0.92 0.28 0 0.94 0.28 0 
0.96 0.28 0 0.98 0.28 0 1 0.28 0 
0 0.3 0 0.02 0.3 0 0.04 0.3 0 
0.06 0.3 0 0.08 0.3 0 0.1 0.3 0 
0.12 0.3 0 0.14 0.3 0 0.16 0.3 0 
0.18 0.3 0 0.2 0.3 0 0.22 0.3 0 
0.24 0.3 0 0.26 0.3 0 0.28 0.3 0 
0.3 0.3 0 0.32 0.3 0 0.34 0.3 0 
0.36 0.3 0 0.38 0.3 0 0.4 0.3 0 
0.42 0.3 0 0.44 0.3 0 0.46 0.3 0 
0.48 0.3 0 0.5 0.3 0 0.52 0.3 0 
0.54 0.3 0 0.56 0.3 0 0.58 0.3 0 
0.6 0.3 0 0.62 0.3 0 0.64 0.3 0 
0.66 0.3 0 0.68 0.3 0 0.7 0.3 0 
0.72 0.3 0 0.74 0.3 0 0.76 0.3 0 
0.78 0.3 0 0.8 0.3 0 0.82 0.3 0 
0.84 0.3 0 0.86 0.3 0 0.88 0.3 0 
0.9 0.3 0 0.92 0.3 0 0.94 0.3 0 
0.96 0.3 0 0.98 0.3 0 1 0.3 0 
0 0.32 0 0.02 0.32 0 0.04 0.32 0 
0.06 0.32 0 0.08 0.32 0 0.1 0.32 0 
0.12 0.32 0 0.14 0.32 0 0.16 0.32 0 
0.18 0.32 0 0.2 0.32 0 0.22 0.32 0 
0.24 0.32 0 0.26 0.32 0 0.28 0.32 0 
0.3 0.32 0 0.32 0.32 0 0.34 0.32 0 
0.36 0.32 0 0.38 0.32 0 0.4 0.32 0 
0.42 0.32 0 0.44 0.32 0 0.46 0.32 0 
0.48 0.32 0 0.5 0.32 0 0.52 0.32 0 
0.54 0.32 0 0.56 0.32 0 0.58 0.32 0 
[...]
CELL_DATA 2500
FIELD FieldData 2
pressure 1 2500 double
-0.0065078283358 -0.0065119924347 -0.006514181134 -0.0065119189571 -0.0065042542178 -0.0064909381687 -0.0064719846108 -0.0064474653572 -0.0064174291416 
-0.0063818795269 -0.0063407776457 -0.0062940527802 -0.006241613616 -0.0061833578545 -0.0061191801814 -0.0060489792262 -0.0059726641831 -0.0058901617111 
-0.0058014234087 -0.0057064340595 -0.0056052207597 -0.0054978629037 -0.0053845029078 -0.0052653574288 -0.0051407286957 -0.0050110153792 -0.004876722253 
-0.0047384678732 -0.0045969901192 -0.0044531517462 -0.0043080449316 -0.0041629214331 -0.0040190026659 -0.0038776273263 -0.0037402115269 -0.0036082099281 
-0.0034830741869 -0.0033662082868 -0.0032589221382 -0.0031623855278 -0.0030775844105 -0.0030052806446 -0.0029459744459 -0.0028998659405 -0.0028668077314 
-0.0028462330325 -0.0028370298737 -0.0028373031336 -0.0028439165166 -0.0028516817501 -0.0065036742695 -0.0065078893938 -0.0065087815281 -0.0065052547026 
-0.0064966993495 -0.0064828538643 -0.0064636322614 -0.0064390112066 -0.0064089722599 -0.0063734788101 -0.0063324711932 -0.0062858699214 -0.0062335815202 
-0.0061755049086 -0.0061115375697 -0.0060415815769 -0.005965549859 -0.0058833728428 -0.0057950057661 -0.0057004368126 -0.005599696077 -0.0054928653622 
-0.0053800887156 -0.0052615834881 -0.005137651553 -0.0050086901384 -0.0048752015391 -0.0047378007225 -0.0045972192007 -0.0044543005373 -0.0043102221087 
-0.0041661321625 -0.0040232663985 -0.0038829621644 -0.0037466287039 -0.0036157116642 -0.0034916522083 -0.0033758419267 -0.0032695752516 -0.0031740013676 
-0.0030900773496 -0.0030185233102 -0.0029597786775 -0.0029139564815 -0.0028807900129 -0.0028595646482 -0.0028490295993 -0.0028472982381 -0.0028517945248 
-0.0028594498249 -0.0065016528872 -0.0065072752865 -0.0065081333965 -0.0065041025255 -0.006495028147 -0.0064808074507 -0.0064613773672 -0.0064366886512 
-0.0064066877519 -0.0063713085423 -0.0063304707318 -0.0062840816969 -0.0062320400781 -0.0061742399601 -0.0061105754813 -0.0060409459367 -0.0059652613301 
-0.0058834486511 -0.0057954589503 -0.0057012752268 -0.005600921258 -0.0054944713581 -0.0053820609685 -0.0052638979246 -0.0051402740585 -0.0050115767216 
-0.0048782996301 -0.0047410522376 -0.0046005664936 -0.0044576989445 -0.0043136430896 -0.0041694778529 -0.0040264752599 -0.0038860006071 -0.003749490064 
-0.0036184172968 -0.0034942520293 -0.003378412715 -0.0032722155811 -0.0031768224049 -0.0030931891285 -0.0030220165848 -0.0029637033298 -0.0029182990973 
-0.0028854569113 -0.002864384789 -0.0028538089473 -0.0028519880119 -0.0028568721929 -0.0028665882477 -0.006504781346 -0.0065118311392 -0.0065131085333 
-0.0065090173626 -0.0064997406054 -0.0064853449574 -0.0064658323257 -0.0064411648503 -0.0064112782541 -0.0063760897175 -0.0063355029636 -0.0062894122355 
-0.0062377055246 -0.0061802679022 -0.0061169852223 -0.0060477483498 -0.0059724582085 -0.005891031617 -0.0058034079595 -0.0057095569242 -0.0056094872826 
-0.0055032567059 -0.0053909826344 -0.0052728540115 -0.005149143742 -0.0050202215309 -0.0048865666663 -0.0047487804091 -0.0046075982283 -0.0044639047755 
-0.0043188478007 -0.0041735263206 -0.0040292543652 -0.0038874466706 -0.0037495959904 -0.0036172383269 -0.0034919084437 -0.0033750878604 -0.0032681479719 
-0.0031722912327 -0.00308849335 -0.0030174489996 -0.0029595225638 -0.0029147045224 -0.002882574413 -0.0028622753124 -0.0028525162706 -0.0028516420712 
-0.0028578440437 -0.0028696222442 -0.0065146900415 -0.0065228376548 -0.0065246090941 -0.0065206710307 -0.0065114119993 -0.0064970236298 -0.0064775697587 
-0.0064530352719 -0.0064233577053 -0.0063884464877 -0.0063481943438 -0.006302483645 -0.0062511905728 -0.0061941883217 -0.0061313503618 -0.0060625542732 
-0.0059876862591 -0.0059066465138 -0.0058193557371 -0.0057257627088 -0.0056258530253 -0.0055196591477 -0.0054072716598 -0.0052888518454 -0.0051646453302 
-0.0050349965837 -0.0049003640125 -0.0047613352307 -0.004618642141 -0.0044732151948 -0.0043261316376 -0.0041785816203 -0.0040319290839 -0.0038876591194 
-0.0037473500457 -0.003612634268 -0.0034851480937 -0.0033664723346 -0.0032580664645 -0.0031612000926 -0.0030768861172 -0.003005819666 -0.0029483266032 
-0.0029043240999 -0.0028732958817 -0.0028542871127 -0.0028459315565 -0.0028465387937 -0.0028542919194 -0.0028676366874 -0.0065322436448 -0.0065411480785 
-0.0065433531777 -0.0065396526154 -0.0065305482289 -0.0065163086587 -0.0064970415279 -0.0064727516447 -0.0064433814783 -0.0064088369885 -0.0063690025805 
-0.0063237497432 -0.0062729419569 -0.0062164382425 -0.0061540963209 -0.0060857760488 -0.0060113435858 -0.0059306766324 -0.0058436706318 -0.005750246194 
-0.0056503579792 -0.0055440049603 -0.0054312424137 -0.0053121953959 -0.0051870738551 -0.0050561892145 -0.0049199720223 -0.0047789903226 -0.0046339681912 
-0.0044858461784 -0.0043357239437 -0.0041848698362 -0.0040347185812 -0.0038868508867 -0.0037429620627 -0.0036048174317 -0.0034741944671 -0.0033528129864 
-0.0032422567319 -0.0031438912628 -0.0030587840487 -0.0029876337361 -0.0029307145046 -0.0028878405814 -0.0028583541165 -0.0028411390817 -0.0028346671859 
-0.0028370920768 -0.00284643054 -0.0028609133815 -0.0065578839312 -0.0065672842641 -0.0065698384438 -0.0065664011944 -0.0065575333628 -0.0065435458186 
-0.0065245715768 -0.0065006277647 -0.0064716600862 -0.0064375712143 -0.0063982378742 -0.0063535204105 -0.0063032685444 -0.0062473249598 -0.0061855283482 
-0.0061177167447 -0.0060437315765 -0.0059634224796 -0.0058766533222 -0.0057833096685 -0.0056833076348 -0.0055766046931 -0.005463212191 -0.0053432100926 
-0.0052167638198 -0.0050841430077 -0.0049457420983 -0.0048021021536 -0.0046539329597 -0.0045021554674 -0.0043479728937 -0.0041927170422 -0.004037915502 
-0.0038852725802 -0.0037366353984 -0.0035939435136 -0.0034591612373 -0.0033341942169 -0.0032207940808 -0.0031204572265 -0.0030343266667 -0.0029631064119 
-0.0029069986085 -0.0028656710181 -0.002838258831 -0.0028234005952 -0.0028193071327 -0.0028238708496 -0.002834850481 -0.0028502245024 -0.0065918152341 
-0.0066015381431 -0.0066043733896 -0.0066012061261 -0.0065926272377 -0.0065789685786 -0.0065603751374 -0.0065368690873 -0.0065083956208 -0.0064748524713 
-0.0064361075215 -0.006392009064 -0.006342391345 -0.0062870782826 -0.006225886564 -0.0061586287673 -0.0060851170046 -0.0060051675949 -0.0059186069556 
-0.0058252788008 -0.0057250533197 -0.0056178381248 -0.0055035917273 -0.0053823394878 -0.0052541921593 -0.0051193672909 -0.0049782130622 -0.0048312339376 
-0.0046791168774 -0.0045227470667 -0.0043634628142 -0.0042026695848 -0.0040420086933 -0.0038833376301 -0.0037286943673 -0.0035802405526 -0.0034401821442 
-0.003310668591 -0.0031936746944 -0.0030908735236 -0.0030035117207 -0.0029323020907 -0.0028773483697 -0.0028381145326 -0.0028134442691 -0.0028016275383 
-0.0028005055112 -0.0028076126733 -0.0028203885273 -0.0028365595212 -0.0066341088142 -0.0066440505485 -0.0066471250889 -0.006644234376 -0.006635985204 
-0.0066227189761 -0.0066045845825 -0.0065816037074 -0.0065537174065 -0.0065208160823 -0.0064827572528 -0.0064393751921 -0.0063904867171 -0.006335894793 
-0.0062753912412 -0.006208759594 -0.0061357785464 -0.006056226268 -0.0059698859087 -0.0058765528654 -0.0057760437359 -0.0056682077828 -0.0055529410907 
-0.0054302035971 -0.0053000397255 -0.0051626023715 -0.0050181802668 -0.0048672287075 -0.0047104029809 -0.0045485325838 -0.0043830875604 -0.0042155733339 
-0.0040477665447 -0.0038817088138 -0.0037196723868 -0.0035640972372 -0.0034174980362 -0.0032823413341 -0.0031608977614 -0.0030550791011 -0.0029662762305 
-0.0028952191026 -0.0028418816235 -0.0028054513748 -0.0027843735455 -0.0027764629918 -0.0027790660697 -0.0027892583179 -0.0028041033003 -0.0028210742978 
-0.0066847614357 -0.0066948666102 -0.0066981625187 -0.0066955626448 -0.0066876834236 -0.0066748706062 -0.0066572726961 -0.0066349072372 -0.0066077085949 
-0.0065755578212 -0.0065382997936 -0.006495753114 -0.0064477153706 -0.0063939662747 -0.006334270187 -0.0062683785655 -0.0061960328997 -0.0061169686269 
-0.0060309203428 -0.0059376285716 -0.0058368487398 -0.0057283628888 -0.0056119940689 -0.0054876248195 -0.0053552194171 -0.0052148504737 -0.0050667303104 
-0.004911245885 -0.0047489970734 -0.0045808026239 -0.0044081106398 -0.0042326392296 -0.0040563092751 -0.0038813754464 -0.0037103916758 -0.003546142084 
-0.0033915323394 -0.0032494400023 -0.0031225279777 -0.0030130328416 -0.0029225498638 -0.0028518443473 -0.0028007253595 -0.0027680133631 -0.0027516184451 
-0.0027487207759 -0.0027560189471 -0.0027700113152 -0.002787318002 -0.0028051424892 -0.0067437276128 -0.0067539712706 -0.0067574889605 -0.0067552042077 
-0.0067477410186 -0.0067354475688 -0.0067184698045 -0.006696819711 -0.0066704231908 -0.0066391499614 -0.0066028310085 -0.0065612676893 -0.0065142366585 
-0.0064614926843 -0.0064027705484 -0.0063377869639 -0.0062662430441 -0.0061878275233 -0.0061022213785 -0.0060091041215 -0.0059081626183 -0.0057991021506 
-0.0056816616757 -0.0055556327827 -0.0054208835183 -0.0052773880217 -0.0051252609638 -0.0049647981807 -0.0047965204973 -0.0046212180719 -0.0044402149169 
-0.0042555152344 -0.004069194049 -0.0038837472618 -0.0037020615947 -0.0035273414554 -0.0033629841148 -0.003212398177 -0.0030787673352 -0.0029647733724 
-0.0028723054984 -0.0028022006555 -0.0027540673568 -0.0027262456303 -0.0027159338537 -0.0027194695746 -0.002732708458 -0.0027514240792 -0.0027717065983 
-0.0027904548189 -0.0068109355188 -0.0068213102961 -0.0068250631429 -0.0068231278814 -0.0068161358963 -0.0068044371082 -0.0067881749921 -0.0067673550553 
-0.0067418937181 -0.0067116487329 -0.0066764360577 -0.0066360388842 -0.0065902119956 -0.00653868398 -0.0064811585863 -0.0064173160102 -0.0063468144287 
-0.0062692926291 -0.006184373695 -0.0060916707412 -0.0059907944596 -0.0058813644031 -0.0057630235902 -0.0056354579034 -0.0054984215651 -0.0053517681323 
-0.0051954900984 -0.0050297642819 -0.0048550045857 -0.0046719172682 -0.0044815929363 -0.0042863884646 -0.0040885324257 -0.0038907852978 -0.0036964185799 
-0.0035091423853 -0.0033329662938 -0.0031719817982 -0.0030300644756 -0.0029105087915 -0.0028156325854 -0.0027464106036 -0.002702219657 -0.0026807799016 
-0.0026783455177 -0.0026901357783 -0.0027109055092 -0.0027355145802 -0.0027594143715 -0.0027791476254 -0.0068862933233 -0.0068968011037 -0.0069008114168 
-0.0068992693442 -0.0068928137745 -0.0068817974124 -0.0068663611817 -0.0068465042266 -0.0068221335758 -0.0067930946622 -0.0067591883702 -0.0067201794831 
-0.0066758006852 -0.00662575411 -0.0065697120131 -0.0065073170412 -0.0064381831556 -0.0063618970141 -0.006278020738 -0.0061860961305 -0.0060856516616 
-0.0059762122934 -0.0058573134011 -0.0057285202908 -0.0055894532098 -0.0054398215963 -0.0052794653253 -0.00510840807 -0.0049269213306 -0.0047356004552 
-0.0045350566188 -0.0043281219377 -0.0041171529364 -0.0039051878088 -0.0036959300585 -0.0034936863014 -0.0033032189469 -0.0031294914415 -0.0029772953657 
-0.0028507712508 -0.0027528649548 -0.0026848046127 -0.0026457204516 -0.0026325421355 -0.0026402747714 -0.002662644594 -0.0026929595754 -0.0027249223816 
-0.0027532139917 -0.0027739588037 -0.0069696901559 -0.0069803370684 -0.0069846334176 -0.0069835361645 -0.0069776930428 -0.0069674599135 -0.0069529760252 
-0.006934234823 -0.0069111344893 -0.0068835088454 -0.0068511442419 -0.00681378788 -0.0067711511007 -0.00672291043 -0.0066687071173 -0.0066081469065 
-0.0065407995141 -0.0064661988523 -0.006383844328 -0.0062932037338 -0.006193718383 -0.0060848113014 -0.0059658999506 -0.0058364138211 -0.0056958201114 
-0.0055436567256 -0.0053795774131 -0.0052034096366 -0.005015227713 -0.0048154502367 -0.0046041688915 -0.0043844355771 -0.0041588202024 -0.003930647437 
-0.0037040857202 -0.0034841253912 -0.0032764374905 -0.0030870852203 -0.0029220659896 -0.0027866853806 -0.0026848107864 -0.002618118194 -0.0025855110955 
-0.0025829296192 -0.0026037262242 -0.0026396229983 -0.002682008889 -0.0027231152945 -0.0027567013139 -0.002778411148 -0.0070609942458 -0.0070717880413 
-0.007076403146 -0.0070758097103 -0.0070706648994 -0.0070613288363 -0.0070479400501 -0.0070304874879 -0.007008861693 -0.0069828862389 -0.0069523346201 
-0.006916938139 -0.0068763889089 -0.0068303396415 -0.0067784030839 -0.0067201500379 -0.0066551077851 -0.006582758974 -0.006502541038 -0.006413847177 
-0.0063160292895 -0.006208403974 -0.0060902624426 -0.0059608863961 -0.0058195709915 -0.0056656568959 -0.0054985758444 -0.0053179082741 -0.0051234625802 
-0.0049153740982 -0.0046935693262 -0.0044601489447 -0.0042185190898 -0.0039721974984 -0.0037258053347 -0.0034850832905 -0.0032567698274 -0.0030482906604 
-0.002867210825 -0.0027204288003 -0.0026131583509 -0.0025478399632 -0.0025232416148 -0.0025340941414 -0.0025715701637 -0.0026246860072 -0.0026822616254 
-0.0027346540862 -0.0027745312425 -0.0027970049683 -0.007160049946 -0.007170998437 -0.0071759683114 -0.0071759435969 -0.0071715918549 -0.0071632785354 
-0.0071511428737 -0.0071351707954 -0.0071152471759 -0.0070911875453 -0.0070627550724 -0.0070296682878 -0.0069916029366 -0.0069481921325 -0.0068990236587 
-0.0068436375198 -0.0067815229501 -0.0067121152975 -0.0066347937402 -0.006548879811 -0.0064536376115 -0.0063482766499 -0.0062319585638 -0.0061038094972 
-0.0059629380054 -0.0058084661087 -0.0056395690546 -0.0054555354145 -0.0052558412494 -0.0050402371334 -0.0048088092488 -0.0045613569171 -0.0043027896308 
-0.0040366632922 -0.0037679986824 -0.0035033161073 -0.0032505617416 -0.003018803386 -0.002817602236 -0.0026560031753 -0.0025411650154 -0.0024767963701 
-0.0024617568348 -0.0024893593421 -0.0025479240271 -0.0026227958361 -0.0026993280917 -0.0027655034165 -0.0028126979009 -0.0028353407602 -0.0072666742244 
-0.007277784886 -0.0072831478256 -0.0072837614371 -0.0072803047488 -0.0072731498565 -0.007262438318 -0.0072481551946 -0.0072301821892 -0.0072083299121 
-0.0071823549672 -0.0071519668509 -0.007116830462 -0.0070765640135 -0.0070307365919 -0.0069788639997 -0.0069204042403 -0.0068547529176 -0.0067812385001 
-0.0066991182522 -0.0066075751971 -0.0065057175644 -0.0063925811221 -0.0062671343734 -0.0061282948189 -0.0059749508031 -0.0058059992788 -0.0056203989056 
-0.0054172476004 -0.0051959009258 -0.0049561611343 -0.0046957265225 -0.0044201731917 -0.0041332533057 -0.0038403221659 -0.0035486459841 -0.0032674592313 
-0.0030077212082 -0.0027814476863 -0.0026004985282 -0.0024747870934 -0.0024100704428 -0.0024057832337 -0.0024537215257 -0.0025385329252 -0.0026405750998 
-0.0027404771192 -0.0028232956106 -0.0028779559333 -0.0029009699027 -0.007380653549 -0.0073919335226 -0.0073977292092 -0.007399054004 -0.0073965994438 
-0.0073907459091 -0.0073816393073 -0.0073692664879 -0.00735350927 -0.007334177445 -0.0073110253777 -0.0072837597836 -0.0072520403192 -0.0072154781278 
-0.0071736316411 -0.0071260016858 -0.0070720255035 -0.0070110701961 -0.0069424258848 -0.0068652985028 -0.0067788043861 -0.0066819641637 -0.0065736980968 
-0.0064528301231 -0.0063180925682 -0.0061681408146 -0.0060015810839 -0.0058170150162 -0.0056131106034 -0.0053886982312 -0.0051429182315 -0.004873316926 
-0.0045818070863 -0.0042743041335 -0.0039561789467 -0.0036352602909 -0.0033220146184 -0.0030294200808 -0.0027723358744 -0.0025661446095 -0.0024245241273 
-0.0023564337853 -0.0023628350193 -0.0024342602415 -0.0025508614943 -0.0026862370742 -0.0028144177854 -0.0029165804237 -0.0029794297447 -0.0030027095656 
-0.0075017414364 -0.0075131975164 -0.0075194663296 -0.0075215765813 -0.0075202336552 -0.0075158280814 -0.0075085127675 -0.0074982795025 -0.0074850144437 
-0.007468531081 -0.0074485880231 -0.0074248954727 -0.0073971164075 -0.0073648638835 -0.0073276965808 -0.0072851125971 -0.0072365423905 -0.0071813405398 
-0.0071187763162 -0.0070480259219 -0.0069681599224 -0.0068781329888 -0.0067767794442 -0.0066628030284 -0.0065347744859 -0.0063911375323 -0.0062302229821 
-0.0060502794622 -0.0058495251787 -0.0056262337232 -0.0053788386486 -0.0051060311376 -0.0048017930697 -0.0044761221736 -0.004133984496 -0.0037834564603 
-0.003435961021 -0.0031063438428 -0.0028124233415 -0.0025736478452 -0.0024085357185 -0.0023308046094 -0.0023446323006 -0.0024404160464 -0.0025934969995 
-0.0027686223743 -0.0029304293179 -0.0030542953569 -0.0031274332837 -0.003150773915 -0.0076296565878 -0.0076412956998 -0.0076480777885 -0.0076510470663 
-0.0076509243238 -0.0076481126769 -0.0076427750651 -0.0076349123267 -0.0076244194124 -0.0076111198193 -0.0075947829965 -0.007575131178 -0.0075518402193 
-0.0075245366471 -0.00749279252 -0.0074561188095 -0.0074139571565 -0.0073656699561 -0.0073105324006 -0.0072477156967 -0.0071762759824 -0.0070951441158 
-0.0070031053693 -0.0068987883421 -0.006780653781 -0.0066469850955 -0.0064958885774 -0.0063253064975 -0.0061330500508 -0.0059168663343 -0.0056745553659 
-0.0054042272275 -0.0050978204404 -0.0047600187944 -0.0043987217323 -0.0040218847959 -0.0036412748668 -0.0032729369035 -0.0029371592254 -0.002657450418 
-0.002457955869 -0.0023589097593 -0.0023702920227 -0.0024850636516 -0.0026751435032 -0.0028949955451 -0.003096044126 -0.0032450241625 -0.0033312682914 
-0.0033555370845 -0.0077640823393 -0.007775912109 -0.0077832463634 -0.007787145021 -0.0077883461267 -0.007787268352 -0.0077840885584 -0.0077788210392 
-0.0077713753686 -0.0077615916823 -0.0077492583012 -0.0077341191639 -0.0077158743178 -0.0076941771093 -0.0076686289096 -0.0076387721179 -0.0076040810504 
-0.0075639553573 -0.0075177016837 -0.0074645251883 -0.0074035156554 -0.0073336244327 -0.0072536508649 -0.00716221999 -0.0070577612544 -0.0069384897391 
-0.0068023893245 -0.0066472036682 -0.0064704469339 -0.0062694331553 -0.0060413668814 -0.0057834268742 -0.0054927205779 -0.0051535532071 -0.0047836473637 
-0.0043900955445 -0.0039838137797 -0.0035805306938 -0.003201456676 -0.0028730518962 -0.00262498314 -0.0024854230856 -0.0024733836036 -0.0025890813145 
-0.0028056756634 -0.0030690451964 -0.0033138691849 -0.0034930552884 -0.0035981031244 -0.0036262356102 -0.0079046674663 -0.0079166969241 -0.0079246199145 
-0.0079295121025 -0.0079321311636 -0.0079329150607 -0.0079320590525 -0.0079295962621 -0.0079254573789 -0.0079195065128 -0.0079115601373 -0.0079013944662 
-0.0078887466181 -0.0078733119678 -0.0078547392536 -0.0078326233558 -0.0078065008605 -0.0077758331242 -0.007740001335 -0.0076982918657 -0.0076498772945 
-0.0075938026454 -0.0075289611282 -0.0074540722886 -0.0073676552098 -0.0072679993014 -0.007153133993 -0.0070208044578 -0.0068684507895 -0.0066932257567 
-0.0064920350742 -0.00626167109 -0.0059990522474 -0.0056908921502 -0.0053314780878 -0.0049406374765 -0.0045264952138 -0.0041017924563 -0.003685576175 
-0.0033044512536 -0.0029919192084 -0.0027844160393 -0.0027131152012 -0.0027917910924 -0.0030035375672 -0.0032935421745 -0.0035809623688 -0.0037986175795 
-0.0039283542737 -0.0039694464309 -0.0080510286125 -0.008063269137 -0.0080718138544 -0.008077754141 -0.0080818703984 -0.0080846244129 -0.0080862351872 
-0.0080867610267 -0.0080861605992 -0.0080843304949 -0.0080811250362 -0.0080763644797 -0.0080698369371 -0.0080612964083 -0.0080504584763 -0.0080369980434 
-0.0080205366069 -0.0080006396793 -0.0079768055816 -0.007948453465 -0.0079149108409 -0.0078753969052 -0.0078290056811 -0.0077746825352 -0.0077111997925 
-0.0076371253883 -0.0075507904668 -0.0074502500951 -0.0073332575864 -0.0071972430106 -0.0070393333454 -0.0068564195497 -0.0066453128314 -0.0064030795574 
-0.0060942977532 -0.0057391366468 -0.0053495794444 -0.0049313703414 -0.0044963672856 -0.0040664248361 -0.0036751961241 -0.0033660165817 -0.0031843371055 
-0.0031641800379 -0.0033102614344 -0.0035819379676 -0.0038936588571 -0.004153997824 -0.0043221474027 -0.0043918447318 -0.0082027546043 -0.0082152211203 
-0.0082244155911 -0.0082314452226 -0.0082371169578 -0.0082419220295 -0.0082461097356 -0.0082497705232 -0.0082528988169 -0.008255432655 -0.0082572745581 
-0.008258301246 -0.0082583662872 -0.0082572996454 -0.0082549075325 -0.0082509656753 -0.0082452175523 -0.0082373702376 -0.0082270885095 -0.008213987107 