# vtk DataFile Version 4.1
vtk output
ASCII
DATASET STRUCTURED_GRID
DIMENSIONS 51 51 1
POINTS 2601 float
0 0 0 0.02 0 0 0.04 0 0 
0.06 0 0 0.08 0 0 0.1 0 0 
0.12 0 0 0.14 0 0 0.16 0 0 
0.18 0 0 0.2 0 0 0.22 0 0 
0.24 0 0 0.26 0 0 0.28 0 0 
0.3 0 0 0.32 0 0 0.34 0 0 
0.36 0 0 0.38 0 0 0.4 0 0 
0.42 0 0 0.44 0 0 0.46 0 0 
0.48 0 0 0.5 0 0 0.52 0 0 
0.54 0 0 0.56 0 0 0.58 0 0 
0.6 0 0 0.62 0 0 0.64 0 0 
0.66 0 0 0.68 0 0 0.7 0 0 
0.72 0 0 0.74 0 0 0.76 0 0 
0.78 0 0 0.8 0 0 0.82 0 0 
0.84 0 0 0.86 0 0 0.88 0 0 
0.9 0 0 0.92 0 0 0.94 0 0 
0.96 0 0 0.98 0 0 1 0 0 
0 0.02 0 0.02 0.02 0 0.04 0.02 0 
0.06 0.02 0 0.08 0.02 0 0.1 0.02 0 
0.12 0.02 0 0.14 0.02 0 0.16 0.02 0 
0.18 0.02 0 0.2 0.02 0 0.22 0.02 0 
0.24 0.02 0 0.26 0.02 0 0.28 0.02 0 
0.3 0.02 0 0.32 0.02 0 0.34 0.02 0 
0.36 0.02 0 0.38 0.02 0 0.4 0.02 0 
0.42 0.02 0 0.44 0.02 0 0.46 0.02 0 
0.48 0.02 0 0.5 0.02 0 0.52 0.02 0 
0.54 0.02 0 0.56 0.02 0 0.58 0.02 0 
0.6 0.02 0 0.62 0.02 0 0.64 0.02 0 
0.66 0.02 0 0.68 0.02 0 0.7 0.02 0 
0.72 0.02 0 0.74 0.02 0 0.76 0.02 0 
0.78 0.02 0 0.8 0.02 0 0.82 0.02 0 
0.84 0.02 0 0.86 0.02 0 0.88 0.02 0 
0.9 0.02 0 0.92 0.02 0 0.94 0.02 0 
0.96 0.02 0 0.98 0.02 0 1 0.02 0 
0 0.04 0 0.02 0.04 0 0.04 0.04 0 
0.06 0.04 0 0.08 0.04 0 0.1 0.04 0 
0.12 0.04 0 0.14 0.04 0 0.16 0.04 0 
0.18 0.04 0 0.2 0.04 0 0.22 0.04 0 
0.24 0.04 0 0.26 0.04 0 0.28 0.04 0 
0.3 0.04 0 0.32 0.04 0 0.34 0.04 0 
0.36 0.04 0 0.38 0.04 0 0.4 0.04 0 
0.42 0.04 0 0.44 0.04 0 0.46 0.04 0 
0.48 0.04 0 0.5 0.04 0 0.52 0.04 0 
0.54 0.04 0 0.56 0.04 0 0.58 0.04 0 
0.6 0.04 0 0.62 0.04 0 0.64 0.04 0 
0.66 0.04 0 0.68 0.04 0 0.7 0.04 0 
0.72 0.04 0 0.74 0.04 0 0.76 0.04 0 
0.78 0.04 0 0.8 0.04 0 0.82 0.04 0 
0.84 0.04 0 0.86 0.04 0 0.88 0.04 0 
0.9 0.04 0 0.92 0.04 0 0.94 0.04 0 
0.96 0.04 0 0.98 0.04 0 1 0.04 0 
0 0.06 0 0.02 0.06 0 0.04 0.06 0 
0.06 0.06 0 0.08 0.06 0 0.1 0.06 0 
0.12 0.06 0 0.14 0.06 0 0.16 0.06 0 
0.18 0.06 0 0.2 0.06 0 0.22 0.06 0 
0.24 0.06 0 0.26 0.06 0 0.28 0.06 0 
0.3 0.06 0 0.32 0.06 0 0.34 0.06 0 
0.36 0.06 0 0.38 0.06 0 0.4 0.06 0 
0.42 0.06 0 0.44 0.06 0 0.46 0.06 0 
0.48 0.06 0 0.5 0.06 0 0.52 0.06 0 
0.54 0.06 0 0.56 0.06 0 0.58 0.06 0 
0.6 0.06 0 0.62 0.06 0 0.64 0.06 0 
0.66 0.06 0 0.68 0.06 0 0.7 0.06 0 
0.72 0.06 0 0.74 0.06 0 0.76 0.06 0 
0.78 0.06 0 0.8 0.06 0 0.82 0.06 0 
0.84 0.06 0 0.86 0.06 0 0.88 0.06 0 
0.9 0.06 0 0.92 0.06 0 0.94 0.06 0 
0.96 0.06 0 0.98 0.06 0 1 0.06 0 
0 0.08 0 0.02 0.08 0 0.04 0.08 0 
0.06 0.08 0 0.08 0.08 0 0.1 0.08 0 
0.12 0.08 0 0.14 0.08 0 0.16 0.08 0 
0.18 0.08 0 0.2 0.08 0 0.22 0.08 0 
0.24 0.08 0 0.26 0.08 0 0.28 0.08 0 
0.3 0.08 0 0.32 0.08 0 0.34 0.08 0 
0.36 0.08 0 0.38 0.08 0 0.4 0.08 0 
0.42 0.08 0 0.44 0.08 0 0.46 0.08 0 
0.48 0.08 0 0.5 0.08 0 0.52 0.08 0 
0.54 0.08 0 0.56 0.08 0 0.58 0.08 0 
0.6 0.08 0 0.62 0.08 0 0.64 0.08 0 
0.66 0.08 0 0.68 0.08 0 0.7 0.08 0 
0.72 0.08 0 0.74 0.08 0 0.76 0.08 0 
0.78 0.08 0 0.8 0.08 0 0.82 0.08 0 
0.84 0.08 0 0.86 0.08 0 0.88 0.08 0 
0.9 0.08 0 0.92 0.08 0 0.94 0.08 0 
0.96 0.08 0 0.98 0.08 0 1 0.08 0 
0 0.1 0 0.02 0.1 0 0.04 0.1 0 
0.06 0.1 0 0.08 0.1 0 0.1 0.1 0 
0.12 0.1 0 0.14 0.1 0 0.16 0.1 0 
0.18 0.1 0 0.2 0.1 0 0.22 0.1 0 
0.24 0.1 0 0.26 0.1 0 0.28 0.1 0 
0.3 0.1 0 0.32 0.1 0 0.34 0.1 0 
0.36 0.1 0 0.38 0.1 0 0.4 0.1 0 
0.42 0.1 0 0.44 0.1 0 0.46 0.1 0 
0.48 0.1 0 0.5 0.1 0 0.52 0.1 0 
0.54 0.1 0 0.56 0.1 0 0.58 0.1 0 
0.6 0.1 0 0.62 0.1 0 0.64 0.1 0 
0.66 0.1 0 0.68 0.1 0 0.7 0.1 0 
0.72 0.1 0 0.74 0.1 0 0.76 0.1 0 
0.78 0.1 0 0.8 0.1 0 0.82 0.1 0 
0.84 0.1 0 0.86 0.1 0 0.88 0.1 0 
0.9 0.1 0 0.92 0.1 0 0.94 0.1 0 
0.96 0.1 0 0.98 0.1 0 1 0.1 0 
0 0.12 0 0.02 0.12 0 0.04 0.12 0 
0.06 0.12 0 0.08 0.12 0 0.1 0.12 0 
0.12 0.12 0 0.14 0.12 0 0.16 0.12 0 
0.18 0.12 0 0.2 0.12 0 0.22 0.12 0 
0.24 0.12 0 0.26 0.12 0 0.28 0.12 0 
0.3 0.12 0 0.32 0.12 0 0.34 0.12 0 
0.36 0.12 0 0.38 0.12 0 0.4 0.12 0 
0.42 0.12 0 0.44 0.12 0 0.46 0.12 0 
0.48 0.12 0 0.5 0.12 0 0.52 0.12 0 
0.54 0.12 0 0.56 0.12 0 0.58 0.12 0 
0.6 0.12 0 0.62 0.12 0 0.64 0.12 0 
0.66 0.12 0 0.68 0.12 0 0.7 0.12 0 
0.72 0.12 0 0.74 0.12 0 0.76 0.12 0 
0.78 0.12 0 0.8 0.12 0 0.82 0.12 0 
0.84 0.12 0 0.86 0.12 0 0.88 0.12 0 
0.9 0.12 0 0.92 0.12 0 0.94 0.12 0 
0.96 0.12 0 0.98 0.12 0 1 0.12 0 
0 0.14 0 0.02 0.14 0 0.04 0.14 0 
0.06 0.14 0 0.08 0.14 0 0.1 0.14 0 
0.12 0.14 0 0.14 0.14 0 0.16 0.14 0 
0.18 0.14 0 0.2 0.14 0 0.22 0.14 0 
0.24 0.14 0 0.26 0.14 0 0.28 0.14 0 
0.3 0.14 0 0.32 0.14 0 0.34 0.14 0 
0.36 0.14 0 0.38 0.14 0 0.4 0.14 0 
0.42 0.14 0 0.44 0.14 0 0.46 0.14 0 
0.48 0.14 0 0.5 0.14 0 0.52 0.14 0 
0.54 0.14 0 0.56 0.14 0 0.58 0.14 0 
0.6 0.14 0 0.62 0.14 0 0.64 0.14 0 
0.66 0.14 0 0.68 0.14 0 0.7 0.14 0 
0.72 0.14 0 0.74 0.14 0 0.76 0.14 0 
0.78 0.14 0 0.8 0.14 0 0.82 0.14 0 
0.84 0.14 0 0.86 0.14 0 0.88 0.14 0 
0.9 0.14 0 0.92 0.14 0 0.94 0.14 0 
0.96 0.14 0 0.98 0.14 0 1 0.14 0 
0 0.16 0 0.02 0.16 0 0.04 0.16 0 
0.06 0.16 0 0.08 0.16 0 0.1 0.16 0 
0.12 0.16 0 0.14 0.16 0 0.16 0.16 0 
0.18 0.16 0 0.2 0.16 0 0.22 0.16 0 
0.24 0.16 0 0.26 0.16 0 0.28 0.16 0 
0.3 0.16 0 0.32 0.16 0 0.34 0.16 0 
0.36 0.16 0 0.38 0.16 0 0.4 0.16 0 
0.42 0.16 0 0.44 0.16 0 0.46 0.16 0 
0.48 0.16 0 0.5 0.16 0 0.52 0.16 0 
0.54 0.16 0 0.56 0.16 0 0.58 0.16 0 
0.6 0.16 0 0.62 0.16 0 0.64 0.16 0 
0.66 0.16 0 0.68 0.16 0 0.7 0.16 0 
0.72 0.16 0 0.74 0.16 0 0.76 0.16 0 
0.78 0.16 0 0.8 0.16 0 0.82 0.16 0 
0.84 0.16 0 0.86 0.16 0 0.88 0.16 0 
0.9 0.16 0 0.92 0.16 0 0.94 0.16 0 
0.96 0.16 0 0.98 0.16 0 1 0.16 0 
0 0.18 0 0.02 0.18 0 0.04 0.18 0 
0.06 0.18 0 0.08 0.18 0 0.1 0.18 0 
0.12 0.18 0 0.14 0.18 0 0.16 0.18 0 
0.18 0.18 0 0.2 0.18 0 0.22 0.18 0 
0.24 0.18 0 0.26 0.18 0 0.28 0.18 0 
0.3 0.18 0 0.32 0.18 0 0.34 0.18 0 
0.36 0.18 0 0.38 0.18 0 0.4 0.18 0 
0.42 0.18 0 0.44 0.18 0 0.46 0.18 0 
0.48 0.18 0 0.5 0.18 0 0.52 0.18 0 
0.54 0.18 0 0.56 0.18 0 0.58 0.18 0 
0.6 0.18 0 0.62 0.18 0 0.64 0.18 0 
0.66 0.18 0 0.68 0.18 0 0.7 0.18 0 
0.72 0.18 0 0.74 0.18 0 0.76 0.18 0 
0.78 0.18 0 0.8 0.18 0 0.82 0.18 0 
0.84 0.18 0 0.86 0.18 0 0.88 0.18 0 
0.9 0.18 0 0.92 0.18 0 0.94 0.18 0 
0.96 0.18 0 0.98 0.18 0 1 0.18 0 
0 0.2 0 0.02 0.2 0 0.04 0.2 0 
0.06 0.2 0 0.08 0.2 0 0.1 0.2 0 
0.12 0.2 0 0.14 0.2 0 0.16 0.2 0 
0.18 0.2 0 0.2 0.2 0 0.22 0.2 0 
0.24 0.2 0 0.26 0.2 0 0.28 0.2 0 
0.3 0.2 0 0.32 0.2 0 0.34 0.2 0 
0.36 0.2 0 0.38 0.2 0 0.4 0.2 0 
0.42 0.2 0 0.44 0.2 0 0.46 0.2 0 
0.48 0.2 0 0.5 0.2 0 0.52 0.2 0 
0.54 0.2 0 0.56 0.2 0 0.58 0.2 0 
0.6 0.2 0 0.62 0.2 0 0.64 0.2 0 
0.66 0.2 0 0.68 0.2 0 0.7 0.2 0 
0.72 0.2 0 0.74 0.2 0 0.76 0.2 0 
0.78 0.2 0 0.8 0.2 0 0.82 0.2 0 
0.84 0.2 0 0.86 0.2 0 0.88 0.2 0 
0.9 0.2 0 0.92 0.2 0 0.94 0.2 0 
0.96 0.2 0 0.98 0.2 0 1 0.2 0 
0 0.22 0 0.02 0.22 0 0.04 0.22 0 
0.06 0.22 0 0.08 0.22 0 0.1 0.22 0 
0.12 0.22 0 0.14 0.22 0 0.16 0.22 0 
0.18 0.22 0 0.2 0.22 0 0.22 0.22 0 
0.24 0.22 0 0.26 0.22 0 0.28 0.22 0 
0.3 0.22 0 0.32 0.22 0 0.34 0.22 0 
0.36 0.22 0 0.38 0.22 0 0.4 0.22 0 
0.42 0.22 0 0.44 0.22 0 0.46 0.22 0 
0.48 0.22 0 0.5 0.22 0 0.52 0.22 0 
0.54 0.22 0 0.56 0.22 0 0.58 0.22 0 
0.6 0.22 0 0.62 0.22 0 0.64 0.22 0 
0.66 0.22 0 0.68 0.22 0 0.7 0.22 0 
0.72 0.22 0 0.74 0.22 0 0.76 0.22 0 
0.78 0.22 0 0.8 0.22 0 0.82 0.22 0 
0.84 0.22 0 0.86 0.22 0 0.88 0.22 0 
0.9 0.22 0 0.92 0.22 0 0.94 0.22 0 
0.96 0.22 0 0.98 0.22 0 1 0.22 0 
0 0.24 0 0.02 0.24 0 0.04 0.24 0 
0.06 0.24 0 0.08 0.24 0 0.1 0.24 0 
0.12 0.24 0 0.14 0.24 0 0.16 0.24 0 
0.18 0.24 0 0.2 0.24 0 0.22 0.24 0 
0.24 0.24 0 0.26 0.24 0 0.28 0.24 0 
0.3 0.24 0 0.32 0.24 0 0.34 0.24 0 
0.36 0.24 0 0.38 0.24 0 0.4 0.24 0 
0.42 0.24 0 0.44 0.24 0 0.46 0.24 0 
0.48 0.24 0 0.5 0.24 0 0.52 0.24 0 
0.54 0.24 0 0.56 0.24 0 0.58 0.24 0 
0.6 0.24 0 0.62 0.24 0 0.64 0.24 0 
0.66 0.24 0 0.68 0.24 0 0.7 0.24 0 
0.72 0.24 0 0.74 0.24 0 0.76 0.24 0 
0.78 0.24 0 0.8 0.24 0 0.82 0.24 0 
0.84 0.24 0 0.86 0.24 0 0.88 0.24 0 
0.9 0.24 0 0.92 0.24 0 0.94 0.24 0 
0.96 0.24 0 0.98 0.24 0 1 0.24 0 
0 0.26 0 0.02 0.26 0 0.04 0.26 0 
0.06 0.26 0 0.08 0.26 0 0.1 0.26 0 
0.12 0.26 0 0.14 0.26 0 0.16 0.26 0 
0.18 0.26 0 0.2 0.26 0 0.22 0.26 0 
0.24 0.26 0 0.26 0.26 0 0.28 0.26 0 
0.3 0.26 0 0.32 0.26 0 0.34 0.26 0 
0.36 0.26 0 0.38 0.26 0 0.4 0.26 0 
0.42 0.26 0 0.44 0.26 0 0.46 0.26 0 
0.48 0.26 0 0.5 0.26 0 0.52 0.26 0 
0.54 0.26 0 0.56 0.26 0 0.58 0.26 0 
0.6 0.26 0 0.62 0.26 0 0.64 0.26 0 
0.66 0.26 0 0.68 0.26 0 0.7 0.26 0 
0.72 0.26 0 0.74 0.26 0 0.76 0.26 0 
0.78 0.26 0 0.8 0.26 0 0.82 0.26 0 
0.84 0.26 0 0.86 0.26 0 0.88 0.26 0 
0.9 0.26 0 0.92 0.26 0 0.94 0.26 0 
0.96 0.26 0 0.98 0.26 0 1 0.26 0 
0 0.28 0 0.02 0.28 0 0.04 0.28 0 
0.06 0.28 0 0.08 0.28 0 0.1 0.28 0 
0.12 0.28 0 0.14 0.28 0 0.16 0.28 0 
0.18 0.28 0 0.2 0.28 0 0.22 0.28 0 
0.24 0.28 0 0.26 0.28 0 0.28 0.28 0 
0.3 0.28 0 0.32 0.28 0 0.34 0.28 0 
0.36 0.28 0 0.38 0.28 0 0.4 0.28 0 
0.42 0.28 0 0.44 0.28 0 0.46 0.28 0 
0.48 0.28 0 0.5 0.28 0 0.52 0.28 0 
0.54 0.28 0 0.56 0.28 0 0.58 0.28 0 
0.6 0.28 0 0.62 0.28 0 0.64 0.28 0 
0.66 0.28 0 0.68 0.28 0 0.7 0.28 0 
0.72 0.28 0 0.74 0.28 0 0.76 0.28 0 
0.78 0.28 0 0.8 0.28 0 0.82 0.28 0 
0.84 0.28 0 0.86 0.28 0 0.88 0.28 0 
0.9 0.28 0 0.92 0.28 0 0.94 0.28 0 
0.96 0.28 0 0.98 0.28 0 1 0.28 0 
0 0.3 0 0.02 0.3 0 0.04 0.3 0 
0.06 0.3 0 0.08 0.3 0 0.1 0.3 0 
0.12 0.3 0 0.14 0.3 0 0.16 0.3 0 
0.18 0.3 0 0.2 0.3 0 0.22 0.3 0 
0.24 0.3 0 0.26 0.3 0 0.28 0.3 0 
0.3 0.3 0 0.32 0.3 0 0.34 0.3 0 
0.36 0.3 0 0.38 0.3 0 0.4 0.3 0 
0.42 0.3 0 0.44 0.3 0 0.46 0.3 0 
0.48 0.3 0 0.5 0.3 0 0.52 0.3 0 
0.54 0.3 0 0.56 0.3 0 0.58 0.3 0 
0.6 0.3 0 0.62 0.3 0 0.64 0.3 0 
0.66 0.3 0 0.68 0.3 0 0.7 0.3 0 
0.72 0.3 0 0.74 0.3 0 0.76 0.3 0 
0.78 0.3 0 0.8 0.3 0 0.82 0.3 0 
0.84 0.3 0 0.86 0.3 0 0.88 0.3 0 
0.9 0.3 0 0.92 0.3 0 0.94 0.3 0 
0.96 0.3 0 0.98 0.3 0 1 0.3 0 
0 0.32 0 0.02 0.32 0 0.04 0.32 0 
0.06 0.32 0 0.08 0.32 0 0.1 0.32 0 
0.12 0.32 0 0.14 0.32 0 0.16 0.32 0 
0.18 0.32 0 0.2 0.32 0 0.22 0.32 0 
0.24 0.32 0 0.26 0.32 0 0.28 0.32 0 
0.3 0.32 0 0.32 0.32 0 0.34 0.32 0 
0.36 0.32 0 0.38 0.32 0 0.4 0.32 0 
0.42 0.32 0 0.44 0.32 0 0.46 0.32 0 
0.48 0.32 0 0.5 0.32 0 0.52 0.32 0 
0.54 0.32 0 0.56 0.32 0 0.58 0.32 0 
[...]
CELL_DATA 2500
FIELD FieldData 2
pressure 1 2500 double
-0.0056791519185 -0.0056627338088 -0.0056818422781 -0.0057445789863 -0.0058445648989 -0.0059711332524 -0.0061166399528 -0.0062782865057 -0.0064578977221 
-0.0066590958209 -0.0068864317849 -0.007142166264 -0.0074251327521 -0.0077345937916 -0.0080654618829 -0.0084108692987 -0.008761185429 -0.0091037903334 
-0.0094233505672 -0.0097023544628 -0.0099218295952 -0.010062144279 -0.010103822127 -0.010028415589 -0.0098195018216 -0.0094638237946 -0.0089525640797 
-0.0082827229446 -0.0074586017657 -0.0064934623897 -0.005414200153 -0.0042801724808 -0.0031341237054 -0.002030900606 -0.0010326355432 -0.00020380556173 
0.00039558893395 0.00071879210977 0.00074225791816 0.00047530084118 -5.7682319728e-06 -0.00062005181145 -0.0012700136271 -0.001861154999 -0.0023292293099 
-0.0026601123294 -0.0028654468871 -0.0029655034967 -0.0029815605469 -0.0029412477142 -0.0056859063636 -0.0056711210178 -0.0056961083774 -0.0057598721669 
-0.0058542077021 -0.0059698928113 -0.0061019284761 -0.0062493207144 -0.0064155314908 -0.0066025990155 -0.0068161235492 -0.0070585148804 -0.0073287517017 
-0.0076261118301 -0.0079470946166 -0.008285546403 -0.008632354901 -0.0089754459688 -0.0092999630742 -0.0095887030275 -0.0098227017546 -0.0099819348084 
-0.01004620276 -0.009996173383 -0.0098145508293 -0.0094873137336 -0.0090049217967 -0.0083634106005 -0.0075653323128 -0.0066209357837 -0.0055940587304 
-0.0044974320495 -0.0033827691562 -0.0023066711665 -0.0013310392039 -0.00051937544989 6.9658958228e-05 0.00039094177555 0.00042313240369 0.0001791201652 
-0.00028645382937 -0.00084466573461 -0.0014376330987 -0.0019712243529 -0.0023840910446 -0.0026683504225 -0.0028412020543 -0.0029264553914 -0.0029439464604 
-0.0029025921938 -0.0056606182892 -0.0056497883791 -0.0056820403555 -0.0057495686236 -0.0058415505743 -0.0059486622919 -0.0060696294895 -0.0062021452587 
-0.0063543814549 -0.0065299730546 -0.0067332009636 -0.0069677112012 -0.0072349186988 -0.0075345589213 -0.0078637315657 -0.0082165029786 -0.0085837788623 
-0.0089532716944 -0.009309680368 -0.0096350052209 -0.0099091033704 -0.010110549923 -0.010217713744 -0.010210013523 -0.010069194544 -0.0097805076743 
-0.0093336915653 -0.0087235749828 -0.0079495011523 -0.0070607195488 -0.0060613651779 -0.0049873014364 -0.0038873196405 -0.0028176382458 -0.0018398873477 
-0.0010172625983 -0.00040833652179 -5.861318208e-05 9.6364606739e-06 -0.00019213626747 -0.00061082221885 -0.0011513338211 -0.0017038672426 -0.002204792264 
-0.0025773698889 -0.0028091815173 -0.0029374643922 -0.0029914287926 -0.002992649706 -0.0029417731728 -0.0055954152643 -0.005594921038 -0.005637285052 
-0.0057110567995 -0.0058037300035 -0.0059061724088 -0.0060185387112 -0.0061426300868 -0.0062870600182 -0.0064585760466 -0.0066635516606 -0.0069070553231 
-0.0071918628515 -0.0075180050928 -0.0078823693265 -0.0082784436679 -0.0086961548274 -0.0091218891575 -0.0095386107445 -0.0099263271078 -0.010262894611 
-0.010525115456 -0.010690062351 -0.010736393023 -0.010645555822 -0.010402816709 -0.0099981491285 -0.0094271733788 -0.0086978783834 -0.0078451115544 
-0.0068708777654 -0.0058133151337 -0.0047191993533 -0.0036430917574 -0.0026452393538 -0.0017878300204 -0.0011291838479 -0.00071580385469 -0.00057278509271 
-0.00069400165078 -0.0010350715642 -0.0015142220882 -0.0020271658285 -0.0024902937123 -0.0028437114536 -0.0030402432536 -0.0031296195937 -0.0031517105125 
-0.0031345329481 -0.0030819241183 -0.0054860458092 -0.0055012747244 -0.0055571113287 -0.0056392525495 -0.0057354704961 -0.0058393482877 -0.0059511250349 
-0.0060774906945 -0.0062283589168 -0.006413804142 -0.0066424393332 -0.0069204986026 -0.0072510187747 -0.0076334599491 -0.008063522503 -0.0085329854169 
-0.0090296370658 -0.0095373210926 -0.010036375747 -0.010504385201 -0.010917297545 -0.011250756456 -0.011481396575 -0.011588048349 -0.011552730984 
-0.011361500041 -0.011005203892 -0.010480001945 -0.0098068737476 -0.008984737036 -0.0080353081408 -0.0069923661625 -0.0058992955865 -0.0048075694522 
-0.0037746490685 -0.0028605588925 -0.0021226801389 -0.0016086235033 -0.001347578189 -0.0013414275579 -0.0015582642182 -0.0019322927117 -0.0023740239844 
-0.0027907804985 -0.0031014700787 -0.0032973726334 -0.0033680345665 -0.0033740897215 -0.0033491783876 -0.0033047215997 -0.0053301113743 -0.0053658021549 
-0.005437086421 -0.0055297773954 -0.0056366987165 -0.0057499760662 -0.0058744175065 -0.0060200057469 -0.0061992529551 -0.0064243032164 -0.006704914833 
-0.0070473197853 -0.0074536694502 -0.0079218553767 -0.0084453999045 -0.0090133955263 -0.0096105675605 -0.010217732765 -0.010812546325 -0.011370665002 
-0.011867024622 -0.012277082662 -0.012577987976 -0.012749480381 -0.012774724788 -0.012641114252 -0.012341138492 -0.011873432823 -0.011250090215 
-0.010466724533 -0.0095460570591 -0.0085191167147 -0.0074254099792 -0.0063121411216 -0.005232605789 -0.0042434057943 -0.0034001348425 -0.0027513450748 
-0.0023310531343 -0.0021508260409 -0.002193469595 -0.0024112489212 -0.002731276995 -0.0030686559082 -0.0033457793503 -0.0035216176111 -0.0036053530708 
-0.0036221292565 -0.0036067805148 -0.0035786959235 -0.0051307303952 -0.0051912543675 -0.0052802021216 -0.0053896913461 -0.0055121811813 -0.0056473616691 
-0.0058026045827 -0.0059903405398 -0.0062246217292 -0.0065181033671 -0.0068801290659 -0.0073156799289 -0.0078250791882 -0.0084037965068 -0.0090423985842 
-0.0097266568651 -0.010438053071 -0.011154580621 -0.011851989992 -0.012504980718 -0.013088426365 -0.013578448189 -0.013953192243 -0.014193624787 
-0.014284231408 -0.01421384088 -0.013976643933 -0.013573415614 -0.013002346178 -0.012263267867 -0.011376392388 -0.010369118767 -0.0092762119484 
-0.008139478726 -0.0070067887039 -0.0059301477737 -0.0049624496027 -0.0041526807215 -0.0035397024155 -0.0031453501442 -0.0029683278518 -0.0029809564979 
-0.0031309217302 -0.0033495453053 -0.0035676426872 -0.0037386513961 -0.0038402465935 -0.003876802213 -0.0038871208363 -0.003880848579 -0.0049035942304 
-0.0049931036004 -0.0051007752598 -0.0052297101768 -0.005378939569 -0.0055522420157 -0.0057594320022 -0.0060140982525 -0.0063301076149 -0.0067190687627 
-0.0071885471304 -0.0077414124642 -0.008375359055 -0.0090827659247 -0.0098507574019 -0.010661743494 -0.011494311955 -0.012324555521 -0.013127219319 
-0.01387695801 -0.014549269648 -0.015121196801 -0.015572081444 -0.015884104307 -0.016043054498 -0.016039185953 -0.015868110128 -0.01553188379 
-0.015017278061 -0.014327659803 -0.013480277539 -0.012498225189 -0.011410739024 -0.010253320549 -0.0090674483104 -0.0078995242955 -0.0067987041602 
-0.0058133894829 -0.0049864116631 -0.004349361017 -0.0039169751044 -0.0036829623605 -0.003618860142 -0.003677418998 -0.0038015863589 -0.0039382762106 
-0.0040504919355 -0.0041387781251 -0.004186610452 -0.0042047685296 -0.0046767374834 -0.0047945797116 -0.0049225712813 -0.0050779401555 -0.0052662622624 
-0.0054947028763 -0.0057743797055 -0.0061182868495 -0.0065387200044 -0.0070449221707 -0.0076419609317 -0.008329786621 -0.0091028410105 -0.0099499154964 
-0.010854654484 -0.011796495386 -0.012752056319 -0.01369630122 -0.014603850234 -0.015449780657 -0.016210346395 -0.016863671742 -0.017390164638 
-0.017773301142 -0.018000283013 -0.018062747114 -0.017957579454 -0.0176875966 -0.017232034836 -0.016596170578 -0.015794070104 -0.014844119543 
-0.013769612759 -0.012599297827 -0.011367629284 -0.010114466505 -0.0088839406134 -0.0077222924457 -0.0066746398712 -0.0057807930403 -0.0050705446004 
-0.0045591489826 -0.0042439579864 -0.004103310104 -0.0040987658169 -0.0041818877713 -0.004306665166 -0.0044320457546 -0.0045161916496 -0.0045590746033 
-0.0044872011555 -0.004629760674 -0.0047815932386 -0.0049709564035 -0.0052100593374 -0.0055085308237 -0.0058771797298 -0.0063272694876 -0.006868351666 
-0.0075067972821 -0.0082444108323 -0.0090776319993 -0.009997066221 -0.010987816068 -0.01203038482 -0.013102062104 -0.014178148863 -0.015233287749 
-0.016242206307 -0.017180513694 -0.018025321947 -0.018755645407 -0.0193532301 -0.019803014788 -0.020093801915 -0.020218827799 -0.020176038742 
-0.019968513363 -0.019572168079 -0.01899270595 -0.018240922026 -0.017330571714 -0.016279110008 -0.01510845282 -0.013845598325 -0.012522936542 
-0.01117811448 -0.0098533064024 -0.0085936727046 -0.0074448693532 -0.0064495910593 -0.0056433213829 -0.0050495850031 -0.0046750802119 -0.0045053569475 
-0.004502557786 -0.0046086992463 -0.0047562244731 -0.0048888762866 -0.0049594344145 -0.0043765552154 -0.0045411992183 -0.0047180298833 -0.0049473094524 
-0.0052461303965 -0.0056249426827 -0.0060932426149 -0.0066596203408 -0.0073305979973 -0.0081090547763 -0.0089929977337 -0.0099747210699 -0.011040812423 
-0.012172950441 -0.013349177656 -0.014545204691 -0.015735674511 -0.016894962328 -0.017998015254 -0.019020965741 -0.019941614456 -0.020740298235 
-0.021400243521 -0.021908318519 -0.022255320784 -0.022435980486 -0.022449119716 -0.022297601326 -0.021957858595 -0.021435190653 -0.020737467235 
-0.019874269376 -0.018857629276 -0.017702795289 -0.016429023646 -0.015060452329 -0.013626956935 -0.012164755983 -0.010716508545 -0.0093305908579 
-0.0080592556638 -0.0069553407204 -0.0060670879021 -0.0054305968708 -0.0050597524241 -0.0049350553944 -0.0049972559298 -0.0051575324619 -0.0053300490756 
-0.005427391625 -0.0043833967937 -0.0045651633463 -0.0047676037062 -0.0050405189858 -0.0054039387247 -0.0058680512702 -0.0064403211693 -0.0071265618192 
-0.0079298804366 -0.0088492248126 -0.0098782147122 -0.011004751277 -0.012211647217 -0.013477681125 -0.01477898699 -0.016090140558 -0.017385112395 
-0.018638054348 -0.019824032115 -0.020919597629 -0.021903729466 -0.022758203668 -0.0234684659 -0.024023665172 -0.024416579324 -0.024643488744 
-0.024703666571 -0.024599421315 -0.024311074827 -0.023843462815 -0.023202053408 -0.022392925282 -0.021423228092 -0.020301840411 -0.019040362561 
-0.017654431215 -0.016165301611 -0.014601551253 -0.013000637226 -0.011409983012 -0.0098871038579 -0.0084979632924 -0.0073124090804 -0.0063952447675 
-0.0057917922535 -0.0055087458466 -0.0054969690683 -0.0056536716269 -0.0058552028015 -0.0059797165734 -0.0045349459943 -0.0047289773456 -0.0049566737088 
-0.0052741962422 -0.0057029150695 -0.0062520945115 -0.0069271650443 -0.0077310436992 -0.0086631190066 -0.0097179349737 -0.010884463164 -0.012146496133 
-0.013483466819 -0.014871879816 -0.016286157307 -0.017699777949 -0.01908592042 -0.020418417046 -0.021672369312 -0.022825243813 -0.023857328977 
-0.02475274548 -0.025499345797 -0.026088688522 -0.026515603023 -0.026777417513 -0.026873914871 -0.026807023819 -0.026563214612 -0.026147280289 
-0.025562851625 -0.024813054744 -0.023900795942 -0.022829355251 -0.021603368025 -0.020230316567 -0.018722509546 -0.017099510841 -0.015390967194 
-0.013639537988 -0.011903235357 -0.010256000006 -0.0087847099789 -0.00758029048 -0.0067205766468 -0.0062444037817 -0.0061226581146 -0.0062461340446 
-0.0064572239718 -0.0066252460274 -0.0048465369381 -0.0050481960485 -0.0052994991451 -0.0056598775471 -0.0061509169559 -0.0067808626635 -0.0075531705367 
-0.0084677078829 -0.0095198085082 -0.010699414645 -0.011991181171 -0.013375156183 -0.01482813801 -0.016324345003 -0.017836670186 -0.019337171444 
-0.020798239906 -0.022193261001 -0.023497895933 -0.024690671212 -0.025754154876 -0.02667485965 -0.027443295339 -0.028053292554 -0.028501194338 
-0.02878575099 -0.028907384384 -0.028868051034 -0.028661523592 -0.028292792879 -0.027763972204 -0.027075912257 -0.026228290525 -0.025219996266 
-0.024049940847 -0.02271833824 -0.021228685398 -0.019590685865 -0.017824142463 -0.0159635538 -0.014062693275 -0.012197765372 -0.010466886243 
-0.0089826993227 -0.0078544662764 -0.0071573835594 -0.0068931323128 -0.0069621312215 -0.0071890269599 -0.0073879604879 -0.0053209853672 -0.0055258044968 
-0.0057977394079 -0.0061969948278 -0.0067447796977 -0.0074483084623 -0.0083090088776 -0.0093234534724 -0.010482828546 -0.01177280049 -0.013174183527 
-0.014664095284 -0.01621662343 -0.017804045144 -0.019397243229 -0.0209669884 -0.022484718976 -0.023923927466 -0.025260992684 -0.026476490257 
-0.02755524315 -0.028486430819 -0.029262838012 -0.029880096383 -0.030336529521 -0.030632206825 -0.030768814245 -0.030748768498 -0.030572637598 
-0.030245609834 -0.029768720595 -0.02914140478 -0.028361372463 -0.027424658741 -0.026325922772 -0.025059330514 -0.023620379493 -0.022008982854 
-0.020234017403 -0.018319213353 -0.016309756645 -0.014278233856 -0.012327369065 -0.010585589485 -0.0091903925238 -0.0082551676411 -0.0078207505509 
-0.0078097878835 -0.0080335311273 -0.0082675209962 -0.0059494997986 -0.0061530991691 -0.0064416849625 -0.0068744861817 -0.0074718780771 -0.0082399386708 
-0.0091777947379 -0.010278702661 -0.011529963773 -0.012913643575 -0.014407493903 -0.015985772816 -0.017620290341 -0.019280860807 -0.020936594124 
-0.022556849595 -0.024112625538 -0.025577774037 -0.026930332262 -0.028152903919 -0.029232784477 -0.03016132333 -0.030933149566 -0.031546110783 
-0.032000260339 -0.032297761158 -0.032441517319 -0.032434203533 -0.032282296064 -0.031990724791 -0.031560078673 -0.030989362461 -0.030275555212 
-0.029413212068 -0.028394311526 -0.027208688406 -0.0258454474 -0.024295812031 -0.022557747453 -0.020642557588 -0.018583201076 -0.016443089359 
-0.014322655688 -0.012359098132 -0.010712929127 -0.0095347066494 -0.0089097003995 -0.008794432702 -0.0089982647939 -0.0092643466804 -0.0067136131337 
-0.0069118057074 -0.0072126502621 -0.007673061529 -0.0083121850714 -0.0091344981277 -0.01013677422 -0.011309101065 -0.012635710851 -0.014095757311 
-0.015664296826 -0.017313137242 -0.019011384471 -0.0207267019 -0.022426397482 -0.024078828493 -0.025655022795 -0.027129955593 -0.028483433012 
-0.02970019536 -0.030769532922 -0.031684449524 -0.03244187689 -0.033041566382 -0.033486075849 -0.033779108226 -0.033924683173 -0.033925182838 
-0.033792238294 -0.033529764173 -0.033138546524 -0.032617873501 -0.031964886257 -0.031173886142 -0.030235870532 -0.029138463016 -0.027866664417 
-0.026404926346 -0.024741258805 -0.022874005676 -0.020821415176 -0.018633084285 -0.016400597901 -0.014262333797 -0.012394904214 -0.010982247872 
-0.010156158572 -0.0099166985306 -0.010084432522 -0.010374985486 -0.0075878161167 -0.0077768573189 -0.0080855975967 -0.0085676760849 -0.0092402425339 
-0.010105951549 -0.011159172027 -0.012387607811 -0.013773059672 -0.015292401303 -0.016918331754 -0.018619964456 -0.020364072839 -0.022116204986 
-0.02384223054 -0.025510214508 -0.027091714172 -0.028563218319 -0.029906230686 -0.031107243967 -0.032156886277 -0.033050473495 -0.033786797064 
-0.034368284401 -0.034799068057 -0.035084143429 -0.035228460632 -0.03523384302 -0.035115718983 -0.034876471621 -0.034517450556 -0.03403858529 
-0.033437756702 -0.03271017123 -0.031847545846 -0.03083749012 -0.029663337955 -0.028305145622 -0.026742845762 -0.024962601711 -0.022966995518 
-0.020788569507 -0.018504363188 -0.016246316535 -0.014199046252 -0.012573726947 -0.011547663408 -0.011171541401 -0.011291086181 -0.011604323821 
-0.0085423469616 -0.0087191448412 -0.0090317710779 -0.009529599489 -0.01022731421 -0.01112539749 -0.012216383587 -0.013486209853 -0.014914952305 
-0.016477538395 -0.018144228632 -0.019881861234 -0.021654911365 -0.023427283502 -0.025164216983 -0.026833794791 -0.028408821824 -0.02986699581 
-0.031191284475 -0.032369156355 -0.033393421662 -0.034261095576 -0.034973763079 -0.03553537945 -0.03595128934 -0.036227287002 -0.036368566046 
-0.036378760925 -0.036272010814 -0.036050797258 -0.035716788723 -0.035270609115 -0.034711495313 -0.03403642494 -0.033239184049 -0.032309128027 
-0.031230126193 -0.029980440372 -0.028534619264 -0.026868791876 -0.024970560427 -0.022853789593 -0.020576560731 -0.018257334426 -0.016080142497 
-0.014275439509 -0.013061966215 -0.012544439007 -0.012605113509 -0.012931868066 -0.0095458982681 -0.0097080126327 -0.010020690529 -0.010528536216 
-0.011243175737 -0.012163145438 -0.013279656514 -0.014577464175 -0.016035348348 -0.017626253876 -0.0193184513 -0.021076513239 -0.022863293014 
-0.024641764479 -0.026376866692 -0.028037633023 -0.029597631788 -0.031035706062 -0.032335425467 -0.033486111541 -0.034482119695 -0.035323281117 
-0.036012645839 -0.036555294573 -0.036957395934 -0.03722483157 -0.037363598131 -0.037378499439 -0.037280891877 -0.037073213543 -0.036757423721 
-0.036335175718 -0.035807245469 -0.035172938651 -0.034428766745 -0.033566902548 -0.032573575009 -0.031427887932 -0.03010222186 -0.028565813643 
-0.026793425114 -0.0247803497 -0.022562972803 -0.020240431682 -0.01798781107 -0.016045704306 -0.014667469882 -0.014011484481 -0.014005522679 
-0.014337372116 -0.010567778092 -0.010713082757 -0.011022030133 -0.011534150518 -0.012257973197 -0.013190338054 -0.014321490932 -0.015635504913 
-0.017109742244 -0.01871561884 -0.020419424837 -0.022184283953 -0.023971981488 -0.025745082236 -0.027469178387 -0.029113753872 -0.030653202544 
-0.032066612485 -0.033338896681 -0.034460808788 -0.035429312228 -0.036245708115 -0.036914100393 -0.037440475786 -0.037830889251 -0.038092092344 
-0.038229540104 -0.038249245755 -0.038158868845 -0.037960811401 -0.037657596305 -0.037251762826 -0.036745796763 -0.036141138654 -0.035437114221 
-0.034629350034 -0.033707747335 -0.032654529869 -0.031443083897 -0.030039401779 -0.028408673491 -0.026529426031 -0.024415582759 -0.022142828845 
-0.019869813336 -0.01783766223 -0.016325424872 -0.015541359861 -0.015464763225 -0.0157941764 -0.011579768168 -0.011705502538 -0.012006655458 
-0.012517550326 -0.013243612129 -0.01418010512 -0.015316696161 -0.016636520946 -0.018115923046 -0.019724806733 -0.021428278347 -0.023188510679 
-0.024966925204 -0.026726528695 -0.028433238268 -0.030057097268 -0.031572445847 -0.032959125726 -0.034203343585 -0.035298009958 -0.036241664431 
-0.037036505671 -0.037687623263 -0.038200798392 -0.038583184148 -0.038840671203 -0.038978364073 -0.039002296933 -0.038917413957 -0.038726104141 
-0.038431133302 -0.03803603424 -0.037544430272 -0.036959649138 -0.036283681975 -0.035515686689 -0.034650035994 -0.033673648675 -0.032563507222 
-0.031285958129 -0.029800676962 -0.028072760667 -0.026094852781 -0.023917010022 -0.021675390921 -0.019602375103 -0.017992540139 -0.017097375036 
-0.016950327616 -0.017271120612 -0.012557987711 -0.012657604484 -0.012947580625 -0.013452359135 -0.014174780252 -0.015108658122 -0.016242754386 
-0.017559471398 -0.019034131787 -0.020635786713 -0.02232893424 -0.024075524264 -0.025837393988 -0.027577928346 -0.029263461241 -0.030863804136 
-0.03235352049 -0.033713502597 -0.034931557572 -0.036002260807 -0.036924765981 -0.037702287449 -0.038339720043 -0.038844122404 -0.039221694439 
-0.039478061336 -0.039617424014 -0.039643478938 -0.039563484698 -0.039376926387 -0.03908730838 -0.038698557054 -0.038215313534 -0.037642370724 
-0.036984001714 -0.036242827122 -0.035417708402 -0.034500965276 -0.033475005047 -0.032309737177 -0.030963600937 -0.029392579794 -0.027570896213 
-0.025522834471 -0.023357898471 -0.021291569064 -0.019623463304 -0.018639485151 -0.018426423739 -0.018734148181 -0.013475902495 -0.013552408022 
-0.013821040061 -0.014315730133 -0.015029937075 -0.015955548444 -0.017080447596 -0.018386177423 -0.019847523811 -0.021433366337 -0.023108204981 
-0.024834594992 -0.026574930585 -0.028293071315 -0.029955104796 -0.031530731738 -0.032995214726 -0.034330558625 -0.035526150808 -0.036576875995 
-0.037482788064 -0.038246939713 -0.038875483458 -0.039374692298 -0.039750487974 -0.040007296314 -0.040148308989 -0.040176942933 -0.040100618327 
-0.039917471459 -0.039630819349 -0.039245073405 -0.038765476958 -0.038198037164 -0.037548986719 -0.036823726304 -0.036025295038 -0.035151486556 
-0.034191085931 -0.033119958984 -0.031899209091 -0.030480394834 -0.02882337027 -0.02692845903 -0.02487657396 -0.022859893892 -0.021173085738 
-0.02012625447 -0.01985554925 -0.020147659561 -0.014309987008 -0.014374027931 -0.014615700666 -0.015088938698 -0.015791665615 -0.016704084833 