# vtk DataFile Version 4.1
vtk output
ASCII
DATASET STRUCTURED_GRID
DIMENSIONS 51 51 1
POINTS 2601 float
0 0 0 0.02 0 0 0.04 0 0 
0.06 0 0 0.08 0 0 0.1 0 0 
0.12 0 0 0.14 0 0 0.16 0 0 
0.18 0 0 0.2 0 0 0.22 0 0 
0.24 0 0 0.26 0 0 0.28 0 0 
0.3 0 0 0.32 0 0 0.34 0 0 
0.36 0 0 0.38 0 0 0.4 0 0 
0.42 0 0 0.44 0 0 0.46 0 0 
0.48 0 0 0.5 0 0 0.52 0 0 
0.54 0 0 0.56 0 0 0.58 0 0 
0.6 0 0 0.62 0 0 0.64 0 0 
0.66 0 0 0.68 0 0 0.7 0 0 
0.72 0 0 0.74 0 0 0.76 0 0 
0.78 0 0 0.8 0 0 0.82 0 0 
0.84 0 0 0.86 0 0 0.88 0 0 
0.9 0 0 0.92 0 0 0.94 0 0 
0.96 0 0 0.98 0 0 1 0 0 
0 0.02 0 0.02 0.02 0 0.04 0.02 0 
0.06 0.02 0 0.08 0.02 0 0.1 0.02 0 
0.12 0.02 0 0.14 0.02 0 0.16 0.02 0 
0.18 0.02 0 0.2 0.02 0 0.22 0.02 0 
0.24 0.02 0 0.26 0.02 0 0.28 0.02 0 
0.3 0.02 0 0.32 0.02 0 0.34 0.02 0 
0.36 0.02 0 0.38 0.02 0 0.4 0.02 0 
0.42 0.02 0 0.44 0.02 0 0.46 0.02 0 
0.48 0.02 0 0.5 0.02 0 0.52 0.02 0 
0.54 0.02 0 0.56 0.02 0 0.58 0.02 0 
0.6 0.02 0 0.62 0.02 0 0.64 0.02 0 
0.66 0.02 0 0.68 0.02 0 0.7 0.02 0 
0.72 0.02 0 0.74 0.02 0 0.76 0.02 0 
0.78 0.02 0 0.8 0.02 0 0.82 0.02 0 
0.84 0.02 0 0.86 0.02 0 0.88 0.02 0 
0.9 0.02 0 0.92 0.02 0 0.94 0.02 0 
0.96 0.02 0 0.98 0.02 0 1 0.02 0 
0 0.04 0 0.02 0.04 0 0.04 0.04 0 
0.06 0.04 0 0.08 0.04 0 0.1 0.04 0 
0.12 0.04 0 0.14 0.04 0 0.16 0.04 0 
0.18 0.04 0 0.2 0.04 0 0.22 0.04 0 
0.24 0.04 0 0.26 0.04 0 0.28 0.04 0 
0.3 0.04 0 0.32 0.04 0 0.34 0.04 0 
0.36 0.04 0 0.38 0.04 0 0.4 0.04 0 
0.42 0.04 0 0.44 0.04 0 0.46 0.04 0 
0.48 0.04 0 0.5 0.04 0 0.52 0.04 0 
0.54 0.04 0 0.56 0.04 0 0.58 0.04 0 
0.6 0.04 0 0.62 0.04 0 0.64 0.04 0 
0.66 0.04 0 0.68 0.04 0 0.7 0.04 0 
0.72 0.04 0 0.74 0.04 0 0.76 0.04 0 
0.78 0.04 0 0.8 0.04 0 0.82 0.04 0 
0.84 0.04 0 0.86 0.04 0 0.88 0.04 0 
0.9 0.04 0 0.92 0.04 0 0.94 0.04 0 
0.96 0.04 0 0.98 0.04 0 1 0.04 0 
0 0.06 0 0.02 0.06 0 0.04 0.06 0 
0.06 0.06 0 0.08 0.06 0 0.1 0.06 0 
0.12 0.06 0 0.14 0.06 0 0.16 0.06 0 
0.18 0.06 0 0.2 0.06 0 0.22 0.06 0 
0.24 0.06 0 0.26 0.06 0 0.28 0.06 0 
0.3 0.06 0 0.32 0.06 0 0.34 0.06 0 
0.36 0.06 0 0.38 0.06 0 0.4 0.06 0 
0.42 0.06 0 0.44 0.06 0 0.46 0.06 0 
0.48 0.06 0 0.5 0.06 0 0.52 0.06 0 
0.54 0.06 0 0.56 0.06 0 0.58 0.06 0 
0.6 0.06 0 0.62 0.06 0 0.64 0.06 0 
0.66 0.06 0 0.68 0.06 0 0.7 0.06 0 
0.72 0.06 0 0.74 0.06 0 0.76 0.06 0 
0.78 0.06 0 0.8 0.06 0 0.82 0.06 0 
0.84 0.06 0 0.86 0.06 0 0.88 0.06 0 
0.9 0.06 0 0.92 0.06 0 0.94 0.06 0 
0.96 0.06 0 0.98 0.06 0 1 0.06 0 
0 0.08 0 0.02 0.08 0 0.04 0.08 0 
0.06 0.08 0 0.08 0.08 0 0.1 0.08 0 
0.12 0.08 0 0.14 0.08 0 0.16 0.08 0 
0.18 0.08 0 0.2 0.08 0 0.22 0.08 0 
0.24 0.08 0 0.26 0.08 0 0.28 0.08 0 
0.3 0.08 0 0.32 0.08 0 0.34 0.08 0 
0.36 0.08 0 0.38 0.08 0 0.4 0.08 0 
0.42 0.08 0 0.44 0.08 0 0.46 0.08 0 
0.48 0.08 0 0.5 0.08 0 0.52 0.08 0 
0.54 0.08 0 0.56 0.08 0 0.58 0.08 0 
0.6 0.08 0 0.62 0.08 0 0.64 0.08 0 
0.66 0.08 0 0.68 0.08 0 0.7 0.08 0 
0.72 0.08 0 0.74 0.08 0 0.76 0.08 0 
0.78 0.08 0 0.8 0.08 0 0.82 0.08 0 
0.84 0.08 0 0.86 0.08 0 0.88 0.08 0 
0.9 0.08 0 0.92 0.08 0 0.94 0.08 0 
0.96 0.08 0 0.98 0.08 0 1 0.08 0 
0 0.1 0 0.02 0.1 0 0.04 0.1 0 
0.06 0.1 0 0.08 0.1 0 0.1 0.1 0 
0.12 0.1 0 0.14 0.1 0 0.16 0.1 0 
0.18 0.1 0 0.2 0.1 0 0.22 0.1 0 
0.24 0.1 0 0.26 0.1 0 0.28 0.1 0 
0.3 0.1 0 0.32 0.1 0 0.34 0.1 0 
0.36 0.1 0 0.38 0.1 0 0.4 0.1 0 
0.42 0.1 0 0.44 0.1 0 0.46 0.1 0 
0.48 0.1 0 0.5 0.1 0 0.52 0.1 0 
0.54 0.1 0 0.56 0.1 0 0.58 0.1 0 
0.6 0.1 0 0.62 0.1 0 0.64 0.1 0 
0.66 0.1 0 0.68 0.1 0 0.7 0.1 0 
0.72 0.1 0 0.74 0.1 0 0.76 0.1 0 
0.78 0.1 0 0.8 0.1 0 0.82 0.1 0 
0.84 0.1 0 0.86 0.1 0 0.88 0.1 0 
0.9 0.1 0 0.92 0.1 0 0.94 0.1 0 
0.96 0.1 0 0.98 0.1 0 1 0.1 0 
0 0.12 0 0.02 0.12 0 0.04 0.12 0 
0.06 0.12 0 0.08 0.12 0 0.1 0.12 0 
0.12 0.12 0 0.14 0.12 0 0.16 0.12 0 
0.18 0.12 0 0.2 0.12 0 0.22 0.12 0 
0.24 0.12 0 0.26 0.12 0 0.28 0.12 0 
0.3 0.12 0 0.32 0.12 0 0.34 0.12 0 
0.36 0.12 0 0.38 0.12 0 0.4 0.12 0 
0.42 0.12 0 0.44 0.12 0 0.46 0.12 0 
0.48 0.12 0 0.5 0.12 0 0.52 0.12 0 
0.54 0.12 0 0.56 0.12 0 0.58 0.12 0 
0.6 0.12 0 0.62 0.12 0 0.64 0.12 0 
0.66 0.12 0 0.68 0.12 0 0.7 0.12 0 
0.72 0.12 0 0.74 0.12 0 0.76 0.12 0 
0.78 0.12 0 0.8 0.12 0 0.82 0.12 0 
0.84 0.12 0 0.86 0.12 0 0.88 0.12 0 
0.9 0.12 0 0.92 0.12 0 0.94 0.12 0 
0.96 0.12 0 0.98 0.12 0 1 0.12 0 
0 0.14 0 0.02 0.14 0 0.04 0.14 0 
0.06 0.14 0 0.08 0.14 0 0.1 0.14 0 
0.12 0.14 0 0.14 0.14 0 0.16 0.14 0 
0.18 0.14 0 0.2 0.14 0 0.22 0.14 0 
0.24 0.14 0 0.26 0.14 0 0.28 0.14 0 
0.3 0.14 0 0.32 0.14 0 0.34 0.14 0 
0.36 0.14 0 0.38 0.14 0 0.4 0.14 0 
0.42 0.14 0 0.44 0.14 0 0.46 0.14 0 
0.48 0.14 0 0.5 0.14 0 0.52 0.14 0 
0.54 0.14 0 0.56 0.14 0 0.58 0.14 0 
0.6 0.14 0 0.62 0.14 0 0.64 0.14 0 
0.66 0.14 0 0.68 0.14 0 0.7 0.14 0 
0.72 0.14 0 0.74 0.14 0 0.76 0.14 0 
0.78 0.14 0 0.8 0.14 0 0.82 0.14 0 
0.84 0.14 0 0.86 0.14 0 0.88 0.14 0 
0.9 0.14 0 0.92 0.14 0 0.94 0.14 0 
0.96 0.14 0 0.98 0.14 0 1 0.14 0 
0 0.16 0 0.02 0.16 0 0.04 0.16 0 
0.06 0.16 0 0.08 0.16 0 0.1 0.16 0 
0.12 0.16 0 0.14 0.16 0 0.16 0.16 0 
0.18 0.16 0 0.2 0.16 0 0.22 0.16 0 
0.24 0.16 0 0.26 0.16 0 0.28 0.16 0 
0.3 0.16 0 0.32 0.16 0 0.34 0.16 0 
0.36 0.16 0 0.38 0.16 0 0.4 0.16 0 
0.42 0.16 0 0.44 0.16 0 0.46 0.16 0 
0.48 0.16 0 0.5 0.16 0 0.52 0.16 0 
0.54 0.16 0 0.56 0.16 0 0.58 0.16 0 
0.6 0.16 0 0.62 0.16 0 0.64 0.16 0 
0.66 0.16 0 0.68 0.16 0 0.7 0.16 0 
0.72 0.16 0 0.74 0.16 0 0.76 0.16 0 
0.78 0.16 0 0.8 0.16 0 0.82 0.16 0 
0.84 0.16 0 0.86 0.16 0 0.88 0.16 0 
0.9 0.16 0 0.92 0.16 0 0.94 0.16 0 
0.96 0.16 0 0.98 0.16 0 1 0.16 0 
0 0.18 0 0.02 0.18 0 0.04 0.18 0 
0.06 0.18 0 0.08 0.18 0 0.1 0.18 0 
0.12 0.18 0 0.14 0.18 0 0.16 0.18 0 
0.18 0.18 0 0.2 0.18 0 0.22 0.18 0 
0.24 0.18 0 0.26 0.18 0 0.28 0.18 0 
0.3 0.18 0 0.32 0.18 0 0.34 0.18 0 
0.36 0.18 0 0.38 0.18 0 0.4 0.18 0 
0.42 0.18 0 0.44 0.18 0 0.46 0.18 0 
0.48 0.18 0 0.5 0.18 0 0.52 0.18 0 
0.54 0.18 0 0.56 0.18 0 0.58 0.18 0 
0.6 0.18 0 0.62 0.18 0 0.64 0.18 0 
0.66 0.18 0 0.68 0.18 0 0.7 0.18 0 
0.72 0.18 0 0.74 0.18 0 0.76 0.18 0 
0.78 0.18 0 0.8 0.18 0 0.82 0.18 0 
0.84 0.18 0 0.86 0.18 0 0.88 0.18 0 
0.9 0.18 0 0.92 0.18 0 0.94 0.18 0 
0.96 0.18 0 0.98 0.18 0 1 0.18 0 
0 0.2 0 0.02 0.2 0 0.04 0.2 0 
0.06 0.2 0 0.08 0.2 0 0.1 0.2 0 
0.12 0.2 0 0.14 0.2 0 0.16 0.2 0 
0.18 0.2 0 0.2 0.2 0 0.22 0.2 0 
0.24 0.2 0 0.26 0.2 0 0.28 0.2 0 
0.3 0.2 0 0.32 0.2 0 0.34 0.2 0 
0.36 0.2 0 0.38 0.2 0 0.4 0.2 0 
0.42 0.2 0 0.44 0.2 0 0.46 0.2 0 
0.48 0.2 0 0.5 0.2 0 0.52 0.2 0 
0.54 0.2 0 0.56 0.2 0 0.58 0.2 0 
0.6 0.2 0 0.62 0.2 0 0.64 0.2 0 
0.66 0.2 0 0.68 0.2 0 0.7 0.2 0 
0.72 0.2 0 0.74 0.2 0 0.76 0.2 0 
0.78 0.2 0 0.8 0.2 0 0.82 0.2 0 
0.84 0.2 0 0.86 0.2 0 0.88 0.2 0 
0.9 0.2 0 0.92 0.2 0 0.94 0.2 0 
0.96 0.2 0 0.98 0.2 0 1 0.2 0 
0 0.22 0 0.02 0.22 0 0.04 0.22 0 
0.06 0.22 0 0.08 0.22 0 0.1 0.22 0 
0.12 0.22 0 0.14 0.22 0 0.16 0.22 0 
0.18 0.22 0 0.2 0.22 0 0.22 0.22 0 
0.24 0.22 0 0.26 0.22 0 0.28 0.22 0 
0.3 0.22 0 0.32 0.22 0 0.34 0.22 0 
0.36 0.22 0 0.38 0.22 0 0.4 0.22 0 
0.42 0.22 0 0.44 0.22 0 0.46 0.22 0 
0.48 0.22 0 0.5 0.22 0 0.52 0.22 0 
0.54 0.22 0 0.56 0.22 0 0.58 0.22 0 
0.6 0.22 0 0.62 0.22 0 0.64 0.22 0 
0.66 0.22 0 0.68 0.22 0 0.7 0.22 0 
0.72 0.22 0 0.74 0.22 0 0.76 0.22 0 
0.78 0.22 0 0.8 0.22 0 0.82 0.22 0 
0.84 0.22 0 0.86 0.22 0 0.88 0.22 0 
0.9 0.22 0 0.92 0.22 0 0.94 0.22 0 
0.96 0.22 0 0.98 0.22 0 1 0.22 0 
0 0.24 0 0.02 0.24 0 0.04 0.24 0 
0.06 0.24 0 0.08 0.24 0 0.1 0.24 0 
0.12 0.24 0 0.14 0.24 0 0.16 0.24 0 
0.18 0.24 0 0.2 0.24 0 0.22 0.24 0 
0.24 0.24 0 0.26 0.24 0 0.28 0.24 0 
0.3 0.24 0 0.32 0.24 0 0.34 0.24 0 
0.36 0.24 0 0.38 0.24 0 0.4 0.24 0 
0.42 0.24 0 0.44 0.24 0 0.46 0.24 0 
0.48 0.24 0 0.5 0.24 0 0.52 0.24 0 
0.54 0.24 0 0.56 0.24 0 0.58 0.24 0 
0.6 0.24 0 0.62 0.24 0 0.64 0.24 0 
0.66 0.24 0 0.68 0.24 0 0.7 0.24 0 
0.72 0.24 0 0.74 0.24 0 0.76 0.24 0 
0.78 0.24 0 0.8 0.24 0 0.82 0.24 0 
0.84 0.24 0 0.86 0.24 0 0.88 0.24 0 
0.9 0.24 0 0.92 0.24 0 0.94 0.24 0 
0.96 0.24 0 0.98 0.24 0 1 0.24 0 
0 0.26 0 0.02 0.26 0 0.04 0.26 0 
0.06 0.26 0 0.08 0.26 0 0.1 0.26 0 
0.12 0.26 0 0.14 0.26 0 0.16 0.26 0 
0.18 0.26 0 0.2 0.26 0 0.22 0.26 0 
0.24 0.26 0 0.26 0.26 0 0.28 0.26 0 
0.3 0.26 0 0.32 0.26 0 0.34 0.26 0 
0.36 0.26 0 0.38 0.26 0 0.4 0.26 0 
0.42 0.26 0 0.44 0.26 0 0.46 0.26 0 
0.48 0.26 0 0.5 0.26 0 0.52 0.26 0 
0.54 0.26 0 0.56 0.26 0 0.58 0.26 0 
0.6 0.26 0 0.62 0.26 0 0.64 0.26 0 
0.66 0.26 0 0.68 0.26 0 0.7 0.26 0 
0.72 0.26 0 0.74 0.26 0 0.76 0.26 0 
0.78 0.26 0 0.8 0.26 0 0.82 0.26 0 
0.84 0.26 0 0.86 0.26 0 0.88 0.26 0 
0.9 0.26 0 0.92 0.26 0 0.94 0.26 0 
0.96 0.26 0 0.98 0.26 0 1 0.26 0 
0 0.28 0 0.02 0.28 0 0.04 0.28 0 
0.06 0.28 0 0.08 0.28 0 0.1 0.28 0 
0.12 0.28 0 0.14 0.28 0 0.16 0.28 0 
0.18 0.28 0 0.2 0.28 0 0.22 0.28 0 
0.24 0.28 0 0.26 0.28 0 0.28 0.28 0 
0.3 0.28 0 0.32 0.28 0 0.34 0.28 0 
0.36 0.28 0 0.38 0.28 0 0.4 0.28 0 
0.42 0.28 0 0.44 0.28 0 0.46 0.28 0 
0.48 0.28 0 0.5 0.28 0 0.52 0.28 0 
0.54 0.28 0 0.56 0.28 0 0.58 0.28 0 
0.6 0.28 0 0.62 0.28 0 0.64 0.28 0 
0.66 0.28 0 0.68 0.28 0 0.7 0.28 0 
0.72 0.28 0 0.74 0.28 0 0.76 0.28 0 
0.78 0.28 0 0.8 0.28 0 0.82 0.28 0 
0.84 0.28 0 0.86 0.28 0 0.88 0.28 0 
0.9 0.28 0 0.92 0.28 0 0.94 0.28 0 
0.96 0.28 0 0.98 0.28 0 1 0.28 0 
0 0.3 0 0.02 0.3 0 0.04 0.3 0 
0.06 0.3 0 0.08 0.3 0 0.1 0.3 0 
0.12 0.3 0 0.14 0.3 0 0.16 0.3 0 
0.18 0.3 0 0.2 0.3 0 0.22 0.3 0 
0.24 0.3 0 0.26 0.3 0 0.28 0.3 0 
0.3 0.3 0 0.32 0.3 0 0.34 0.3 0 
0.36 0.3 0 0.38 0.3 0 0.4 0.3 0 
0.42 0.3 0 0.44 0.3 0 0.46 0.3 0 
0.48 0.3 0 0.5 0.3 0 0.52 0.3 0 
0.54 0.3 0 0.56 0.3 0 0.58 0.3 0 
0.6 0.3 0 0.62 0.3 0 0.64 0.3 0 
0.66 0.3 0 0.68 0.3 0 0.7 0.3 0 
0.72 0.3 0 0.74 0.3 0 0.76 0.3 0 
0.78 0.3 0 0.8 0.3 0 0.82 0.3 0 
0.84 0.3 0 0.86 0.3 0 0.88 0.3 0 
0.9 0.3 0 0.92 0.3 0 0.94 0.3 0 
0.96 0.3 0 0.98 0.3 0 1 0.3 0 
0 0.32 0 0.02 0.32 0 0.04 0.32 0 
0.06 0.32 0 0.08 0.32 0 0.1 0.32 0 
0.12 0.32 0 0.14 0.32 0 0.16 0.32 0 
0.18 0.32 0 0.2 0.32 0 0.22 0.32 0 
0.24 0.32 0 0.26 0.32 0 0.28 0.32 0 
0.3 0.32 0 0.32 0.32 0 0.34 0.32 0 
0.36 0.32 0 0.38 0.32 0 0.4 0.32 0 
0.42 0.32 0 0.44 0.32 0 0.46 0.32 0 
0.48 0.32 0 0.5 0.32 0 0.52 0.32 0 
0.54 0.32 0 0.56 0.32 0 0.58 0.32 0 
[...]
CELL_DATA 2500
FIELD FieldData 2
pressure 1 2500 double
-0.0068403885311 -0.0068489684765 -0.0068589273396 -0.0068660618481 -0.0068688077667 -0.0068669484621 -0.0068607212694 -0.0068504006315 -0.0068360983817 
-0.006817745432 -0.0067951114466 -0.0067677853174 -0.0067351962537 -0.0066966412035 -0.0066513064664 -0.0065982706929 -0.0065364529721 -0.0064647102637 
-0.0063817856358 -0.0062864269142 -0.0061773709322 -0.0060534204066 -0.0059135880443 -0.0057571826917 -0.0055839459735 -0.0053942009611 -0.0051890017522 
-0.0049702823183 -0.0047409840244 -0.0045066845923 -0.004272863975 -0.0040453853227 -0.0038308644789 -0.0036361468969 -0.0034677177008 -0.0033310596963 
-0.0032300221601 -0.0031662618042 -0.0031389277178 -0.0031446389916 -0.0031778156851 -0.003231338913 -0.0032973266654 -0.0033680607219 -0.0034366873971 
-0.0034976593829 -0.0035466553761 -0.0035805411061 -0.0035974654442 -0.0035982103402 -0.0068316149656 -0.0068405154639 -0.006848229413 -0.0068529441233 
-0.006853848366 -0.0068507511224 -0.0068437252872 -0.0068328470478 -0.0068181182793 -0.0067994145612 -0.0067764566415 -0.0067488140122 -0.0067159402115 
-0.0066771766019 -0.0066317488263 -0.0065787209312 -0.0065170917312 -0.006445738649 -0.0063635005962 -0.0062691393514 -0.0061614190197 -0.0060392268199 
-0.0059015933809 -0.00574784665 -0.0055777180671 -0.0053914766506 -0.0051900899658 -0.004975368917 -0.0047501309741 -0.0045207642925 -0.0042915859104 
-0.0040685612538 -0.0038582148642 -0.0036672463517 -0.0035019812684 -0.0033677641425 -0.003268300516 -0.0032051431605 -0.0031773579636 -0.003181526837 
-0.0032120883755 -0.0032619941399 -0.0033235616871 -0.0033893186457 -0.0034524741207 -0.0035082174164 -0.0035526916089 -0.0035833550137 -0.0035988585848 
-0.0035990388784 -0.006821686559 -0.0068336419514 -0.0068413513293 -0.0068449144673 -0.0068445006203 -0.0068403119339 -0.0068325036875 -0.0068211437642 
-0.0068061925937 -0.0067874661411 -0.006764647091 -0.006737310733 -0.0067049476465 -0.0066669095558 -0.0066224075563 -0.006570566898 -0.0065104136511 
-0.0064408643791 -0.0063607456823 -0.0062687972899 -0.0061638208577 -0.0060446291157 -0.0059102076387 -0.0057597706377 -0.0055928982926 -0.0054097011694 
-0.0052109303594 -0.0049980847893 -0.0047755947694 -0.0045474690369 -0.0043187872346 -0.0040955848221 -0.0038845304152 -0.0036925033999 -0.0035260632012 
-0.0033907881484 -0.0032906116274 -0.0032272392057 -0.0031997886603 -0.0032047424384 -0.003236284284 -0.0032870228686 -0.0033489276576 -0.003414295968 
-0.0034763742377 -0.003530166665 -0.003572643678 -0.003601572265 -0.0036158977967 -0.0036152234862 -0.0068166540501 -0.0068320902562 -0.006840699107 
-0.0068439116349 -0.006842730912 -0.0068378065629 -0.0068294978596 -0.0068179514304 -0.0068031177715 -0.0067847976486 -0.0067626763828 -0.0067363757819 
-0.0067053657117 -0.0066690022331 -0.0066265436403 -0.0065771611882 -0.0065198791803 -0.0064536038972 -0.0063771171515 -0.0062891811918 -0.0061884645032 
-0.0060737036837 -0.0059436979764 -0.0057974552023 -0.0056343472244 -0.0054541877174 -0.0052574690142 -0.0050455500496 -0.0048233051633 -0.0045937941994 
-0.0043623805334 -0.0041353472108 -0.0039196771324 -0.0037226575941 -0.0035513273203 -0.0034117847993 -0.0033084625012 -0.0032434628768 -0.0032161091462 
-0.0032227888714 -0.003257318875 -0.0033116815203 -0.0033771398344 -0.0034453731296 -0.0035093960835 -0.0035636771105 -0.0036061022211 -0.0036345753773 
-0.0036483320408 -0.0036472161632 -0.0068209650761 -0.0068394837885 -0.0068492204878 -0.0068525319652 -0.0068510748959 -0.0068458770557 -0.0068375130921 
-0.0068262104825 -0.0068119534376 -0.00679457808 -0.006773831695 -0.0067493104943 -0.0067205046519 -0.0066868194816 -0.0066475709732 -0.006601915309 
-0.0065488683778 -0.0064873128051 -0.006416026125 -0.0063336385706 -0.0062387195252 -0.0061297964786 -0.0060054439189 -0.0058644333626 -0.0057057441202 
-0.0055288851069 -0.0053340078129 -0.0051222393621 -0.0048982757025 -0.0046652081319 -0.0044285167785 -0.0041947428813 -0.0039712682928 -0.0037659235058 
-0.0035864113091 -0.0034395776568 -0.0033306010723 -0.003262230675 -0.003234139282 -0.0032427211895 -0.0032813249364 -0.0033411155255 -0.0034123093828 
-0.0034856555929 -0.0035535987207 -0.0036100035728 -0.0036535972969 -0.0036824614377 -0.0036960320434 -0.0036943714711 -0.0068380005541 -0.006859009424 
-0.0068698077357 -0.0068734813152 -0.0068721625669 -0.006867176698 -0.0068592516508 -0.006848690126 -0.0068355574904 -0.006819766427 -0.0068010605281 
-0.0067790665628 -0.0067533405459 -0.0067233503819 -0.0066884064325 -0.0066476577406 -0.0066001398193 -0.0065447075947 -0.0064800469046 -0.0064046650597 
-0.0063169676301 -0.0062152487493 -0.0060978611883 -0.005963152085 -0.0058098240033 -0.0056368958698 -0.0054441104592 -0.0052321472574 -0.0050053334919 
-0.0047672706454 -0.0045235018703 -0.0042807979242 -0.0040469472489 -0.0038303825744 -0.0036396025573 -0.0034824024151 -0.0033649856122 -0.0032910025159 
-0.0032607557597 -0.0032707602285 -0.003313895917 -0.0033802624299 -0.0034587066306 -0.0035386932619 -0.0036116492104 -0.0036711756978 -0.0037164927724 
-0.00374603156 -0.003759430804 -0.0037567685619 -0.0068703891056 -0.0068932923951 -0.0069050208443 -0.0069092274669 -0.0069084034729 -0.0069040780237 
-0.0068970676882 -0.00688778606 -0.0068763779281 -0.0068627815555 -0.0068467750972 -0.0068280712898 -0.0068062968382 -0.0067809293528 -0.0067512815827 
-0.0067165628137 -0.0066757853881 -0.0066277492849 -0.0065710264435 -0.0065040274792 -0.0064249412275 -0.0063318845308 -0.0062228323626 -0.0060959051795 
-0.0059492990562 -0.0057816686982 -0.0055921699439 -0.0053807414424 -0.005151042073 -0.0049076304584 -0.0046560090147 -0.0044030656754 -0.0041569149313 
-0.0039265680701 -0.0037213857472 -0.0035503019378 -0.0034208270028 -0.0033379072336 -0.0033028736837 -0.0033126955911 -0.003359888734 -0.0034333130009 
-0.0035200243803 -0.0036076549146 -0.0036862341888 -0.003749467452 -0.0037965220447 -0.0038265552288 -0.0038395537406 -0.0038354408329 -0.0069201238252 
-0.0069444119285 -0.0069569481831 -0.0069618224992 -0.006961800091 -0.0069585123093 -0.0069528941494 -0.006945428622 -0.0069363049013 -0.0069254854581 
-0.0069128525525 -0.0068981953318 -0.0068811656649 -0.0068612603992 -0.0068378799423 -0.0068102436883 -0.0067773285786 -0.0067378747898 -0.0066904023636 
-0.0066331771378 -0.0065642508719 -0.0064814787668 -0.0063826446777 -0.0062654847647 -0.0061279052947 -0.0059680940321 -0.0057846242893 -0.0055765392263 
-0.0053454765325 -0.0050979486591 -0.0048391967491 -0.0045760002472 -0.0043165706351 -0.0040703246047 -0.0038474318013 -0.00365806591 -0.003511336518 
-0.003413986866 -0.0033690257395 -0.003374563377 -0.0034232477225 -0.0035028421775 -0.0035981464774 -0.0036941108047 -0.003778988687 -0.0038464991808 
-0.0038951625986 -0.0039253517139 -0.0039377466724 -0.0039320510659 -0.0069886530491 -0.0070139132547 -0.0070271573199 -0.0070328294888 -0.0070338484251 
-0.007031968596 -0.0070281887293 -0.0070230352443 -0.0070167030849 -0.0070092645599 -0.0070006710286 -0.0069907578793 -0.0069792054487 -0.0069656186143 
-0.0069494469672 -0.0069298999393 -0.0069059503462 -0.0068763317365 -0.0068395198011 -0.0067936819871 -0.0067367583942 -0.0066664629905 -0.0065803717484 
-0.0064760052396 -0.0063510328432 -0.0062032328997 -0.0060308214947 -0.0058322542294 -0.0056037358306 -0.005355775319 -0.0050929456952 -0.0048215665369 
-0.0045495188146 -0.0042862192808 -0.004042356206 -0.0038292589953 -0.0036578464437 -0.0035372019816 -0.0034729040583 -0.0034653385025 -0.00350851718 
-0.0035899532788 -0.0036923171644 -0.0037970883834 -0.0038891790404 -0.0039616125265 -0.0040128048828 -0.0040432404295 -0.0040552690688 -0.0040484463509 
-0.0070769410309 -0.0071028239373 -0.0071167163067 -0.007123285443 -0.0071255906141 -0.0071254652429 -0.0071239384234 -0.0071215306694 -0.0071185286403 
-0.0071150595498 -0.0071111406414 -0.0071066306578 -0.0071013354207 -0.0070949398753 -0.007086915222 -0.007076509016 -0.0070627451417 -0.0070443993463 
-0.007019920133 -0.0069874901546 -0.0069450108798 -0.0068901608748 -0.0068204479082 -0.0067333295563 -0.0066262309024 -0.0064968482221 -0.0063431102868 
-0.0061636730296 -0.00594745015 -0.0057063724791 -0.0054459366943 -0.0051716998757 -0.0048904657156 -0.0046108872398 -0.0043435548124 -0.0041005890083 
-0.0038947050669 -0.0037377783281 -0.003638936852 -0.0036024049517 -0.0036255155532 -0.0036975491263 -0.0038004477147 -0.0039122541685 -0.004013185515 
-0.0040912252782 -0.004147763729 -0.0041800098022 -0.004192974522 -0.0041863228658 -0.0071854935495 -0.0072117133885 -0.0072262015007 -0.0072337819078 
-0.0072376205607 -0.0072395749304 -0.0072406689235 -0.0072414737905 -0.0072423247967 -0.007243415592 -0.0072447788474 -0.007246402886 -0.0072481983965 
-0.0072498951391 -0.0072510430033 -0.0072509859416 -0.0072488695891 -0.0072435214258 -0.0072335143087 -0.0072171266916 -0.0071923987825 -0.0071571377181 
-0.0071089582409 -0.0070453855596 -0.0069639056311 -0.0068620097426 -0.0067372598442 -0.0065872117266 -0.0064081287259 -0.0061839838676 -0.0059366545242 
-0.0056693436056 -0.0053863543674 -0.0050943677522 -0.0048028828993 -0.0045241047808 -0.0042722407916 -0.0040621703582 -0.0039074512152 -0.0038177996409 
-0.0037963266932 -0.0038371690832 -0.0039246043219 -0.0040351779066 -0.0041438626564 -0.0042326395157 -0.0042951102801 -0.0043342660554 -0.0043512722291 
-0.004347155566 -0.0073144078086 -0.0073407171745 -0.0073557685237 -0.0073644991709 -0.0073701074494 -0.0073744485732 -0.0073785545167 -0.0073830400356 
-0.0073882907799 -0.0073945102546 -0.0074018460084 -0.0074104115009 -0.0074201739105 -0.0074309791344 -0.0074424962649 -0.0074542677011 -0.0074655469445 
-0.0074754011725 -0.0074826137428 -0.007485788623 -0.0074832911616 -0.0074732859894 -0.0074538007825 -0.0074227086222 -0.0073777059052 -0.0073162217754 
-0.0072354443671 -0.0071323383576 -0.0070044309426 -0.0068289566924 -0.0066111616035 -0.0063661040138 -0.0060937048812 -0.0057971626463 -0.0054836330195 
-0.0051644498285 -0.0048547229928 -0.0045722287864 -0.004335500819 -0.0041611470638 -0.0040605226791 -0.0040362052764 -0.0040792406804 -0.0041688327565 
-0.0042766806074 -0.004376539945 -0.0044534197119 -0.0045049141811 -0.0045307232562 -0.004532615329 -0.0074634086071 -0.0074895894481 -0.0075052046881 
-0.0075152255753 -0.0075228432776 -0.0075298885747 -0.0075374214845 -0.0075460840425 -0.0075562670786 -0.0075682607561 -0.0075823483186 -0.0075987055326 
-0.0076174400461 -0.0076385267492 -0.0076618894973 -0.0076872203953 -0.0077141082085 -0.0077419243557 -0.0077699431241 -0.0077972822181 -0.0078229426293 
-0.0078458253337 -0.0078647358785 -0.0078781997554 -0.0078843144547 -0.007880469064 -0.0078630874458 -0.0078276211649 -0.0077685224187 -0.0076795731764 
-0.0075173559501 -0.0073156764312 -0.0070711616079 -0.0067820976445 -0.0064519967527 -0.0060902954867 -0.0057122472178 -0.0053380879464 -0.0049913743 
-0.0046964241236 -0.004474765313 -0.0043407762301 -0.0042971382766 -0.0043316151259 -0.0044177028586 -0.0045221386189 -0.0046178345741 -0.0046902791116 
-0.0047327767918 -0.0047454541397 -0.007631886903 -0.007657756418 -0.0076739507355 -0.0076854135996 -0.0076952816063 -0.0077053841213 -0.0077167796713 
-0.0077301105803 -0.0077458170449 -0.0077643213809 -0.0077859747207 -0.0078110990036 -0.0078399338508 -0.0078727382831 -0.0079096184904 -0.007950656131 
-0.0079958270842 -0.0080451016204 -0.0080984309988 -0.0081558089343 -0.0082172729552 -0.0082829479133 -0.0083528091908 -0.0084264275162 -0.008502461101 
-0.0085781351127 -0.0086486317068 -0.0087067517783 -0.0087432764501 -0.0087472477805 -0.0086990249185 -0.008563824804 -0.0083684261914 -0.0081025426611 
-0.0077647967774 -0.0073618837846 -0.0069084210364 -0.0064263856479 -0.0059438563388 -0.005492860097 -0.0051060397088 -0.0048119843324 -0.0046293902427 
-0.0045609795066 -0.0045894484646 -0.0046797581116 -0.0047913922216 -0.0048922042838 -0.004961712967 -0.0049912848482 -0.0078189399852 -0.0078443448814 
-0.0078611485892 -0.0078742008888 -0.0078865923652 -0.0079001133685 -0.0079158106905 -0.0079343341219 -0.0079562355266 -0.007982011524 -0.0080121443108 
-0.0080470917819 -0.0080873740191 -0.0081334653693 -0.0081858666109 -0.0082451146811 -0.0083118219701 -0.0083867531789 -0.0084708982741 -0.0085655230282 
-0.0086722465928 -0.0087928603437 -0.008929058624 -0.0090817368159 -0.0092501913712 -0.00943099126 -0.0096172244584 -0.0097982906152 -0.0099601934706 
-0.010086860283 -0.010162867079 -0.010134368757 -0.010014494402 -0.0097904506292 -0.0094570267784 -0.0090181139017 -0.0084871641222 -0.0078870201872 
-0.0072492137065 -0.00661253039 -0.0060203978505 -0.0055165927602 -0.005138876757 -0.0049106289578 -0.0048320354629 -0.0048750577535 -0.0049896245639 
-0.0051227321721 -0.0052285530106 -0.005280274546 -0.0080234073741 -0.00804821722 -0.008065656122 -0.0080804672013 -0.0080956532701 -0.0081129608502 
-0.0081334032169 -0.0081577024923 -0.0081864831251 -0.0082203454297 -0.0082599139793 -0.0083058891598 -0.0083590469713 -0.0084202123855 -0.0084903885662 
-0.0085707244936 -0.0086626973183 -0.0087681677794 -0.0088895326826 -0.0090298443908 -0.0091927700223 -0.0093824077549 -0.009602488051 -0.0098554381521 
-0.010140777107 -0.010453850155 -0.010784807112 -0.011118264701 -0.011434058856 -0.011708971684 -0.011918870202 -0.012034414707 -0.012012002963 
-0.011847845169 -0.011532256248 -0.011066268127 -0.010461748648 -0.0097414339591 -0.0089388019794 -0.0080975593615 -0.007270207676 -0.00651490442 
-0.0058895485294 -0.0054422034622 -0.0051981834343 -0.0051469549242 -0.0052374943024 -0.0053946240556 -0.0055419530087 -0.005624476038 -0.0082438973995 
-0.0082679887971 -0.0082861026315 -0.008302834769 -0.0083210862706 -0.0083425287941 -0.0083681892268 -0.0083988425175 -0.0084351899264 -0.0084779673671 
-0.0085279911552 -0.0085862438248 -0.0086537890229 -0.0087319619205 -0.0088223310236 -0.0089269105558 -0.0090482420973 -0.0091896017547 -0.0093552336595 
-0.0095504180372 -0.0097814963472 -0.010055158703 -0.010377512249 -0.010752210473 -0.01117869991 -0.011650279205 -0.012152943876 -0.012665372638 
-0.013160212806 -0.013606561909 -0.013973293247 -0.014233479335 -0.014329740784 -0.01424188351 -0.013957702551 -0.013476269867 -0.012807952541 
-0.011974565231 -0.011009760241 -0.0099595666686 -0.0088825453121 -0.0078485418955 -0.0069343336651 -0.0062142505246 -0.0057445123504 -0.0055425151725 
-0.0055688703339 -0.0057317053129 -0.0059208126677 -0.0060419753152 -0.0084788091306 -0.0085020751873 -0.0085208992169 -0.0085397020982 -0.0085612577525 
-0.0085871792898 -0.0086185055564 -0.0086560580117 -0.0087006447148 -0.0087531498954 -0.0088146576342 -0.0088863938214 -0.0089698871119 -0.0090669993372 
-0.0091800755847 -0.0093121330118 -0.0094670064821 -0.0096497654409 -0.0098668114527 -0.010126226841 -0.010437225968 -0.010809519062 -0.011251354086 
-0.011767520314 -0.012356611208 -0.013008860165 -0.013705021858 -0.014416817633 -0.01510888382 -0.015741924616 -0.016276651366 -0.01667811563 
-0.016906987067 -0.016906511573 -0.016664868614 -0.016180531727 -0.015462840438 -0.014532138663 -0.013420488233 -0.012173208447 -0.010850866665 
-0.0095305621732 -0.0083042765677 -0.0072713067106 -0.0065217517437 -0.0061097810306 -0.0060220497118 -0.0061627961233 -0.0063890381575 -0.006554136677 
-0.0087263662066 -0.0087487107648 -0.0087682642899 -0.0087892532621 -0.0088143191627 -0.0088450247401 -0.0088824077667 -0.0089273547739 -0.0089807797774 
-0.0090437863107 -0.0091176764775 -0.0092040598947 -0.0093049486228 -0.0094228496256 -0.0095610290181 -0.0097235925319 -0.0099160093742 -0.010145261165 
-0.010420445977 -0.010752479512 -0.011153919717 -0.011637248358 -0.01221291754 -0.012886181422 -0.013653953046 -0.014502426561 -0.015406336547 
-0.016329746714 -0.017228722402 -0.018055179268 -0.018761724443 -0.019305938697 -0.01965922021 -0.019748515011 -0.019555749207 -0.019079736836 
-0.01832957374 -0.01732398354 -0.016091963796 -0.014675107423 -0.013131414264 -0.01153950228 -0.010000677497 -0.0086348909413 -0.0075656768963 
-0.0068898773173 -0.0066337592527 -0.0067148872929 -0.0069615989672 -0.0071768402573 -0.0089846433448 -0.0090059696625 -0.0090262451261 -0.009049495436 
-0.0090782325227 -0.0091139509373 -0.0091577039138 -0.0092104307378 -0.009273205232 -0.009347313133 -0.0094343595527 -0.0095363669186 -0.0096558777344 
-0.0097961819279 -0.0099614422271 -0.010157135261 -0.01039036041 -0.010670444514 -0.01100906146 -0.011420370568 -0.011920012467 -0.0125233262 
-0.01324243215 -0.014082352404 -0.015037561648 -0.0160896736 -0.017206702527 -0.018344559252 -0.019450367785 -0.02046764823 -0.021341622479 
-0.022024614016 -0.02248128407 -0.022656532861 -0.0225133857 -0.022053680871 -0.021287667211 -0.020232965211 -0.018914800985 -0.017368588279 
-0.015645248139 -0.013818496236 -0.011991428869 -0.010297612271 -0.0088899517268 -0.0079099545715 -0.0074342906523 -0.0074127980681 -0.0076574065205 
-0.0079247450229 -0.0092515881299 -0.0092717956581 -0.0092927620007 -0.0093183037157 -0.0093507863442 -0.0093916572888 -0.0094419621108 -0.0095027334193 
-0.0095751728554 -0.009660800558 -0.0097615404063 -0.0098798537038 -0.010018890199 -0.010182692077 -0.010376477828 -0.01060708399 -0.010883447321 
-0.011217121452 -0.011622542243 -0.012116937493 -0.012718912747 -0.013446335963 -0.014312317161 -0.015321181647 -0.016464488914 -0.017718742919 
-0.019044819413 -0.020390167362 -0.021693362422 -0.022889696977 -0.023917465442 -0.024723849896 -0.025269669425 -0.025515773905 -0.025415961404 
-0.024975503825 -0.024207140205 -0.023128554998 -0.02176145936 -0.020133711558 -0.018285498386 -0.01627941541 -0.014211966356 -0.012221164078 
-0.010481814294 -0.0091777814019 -0.008442855417 -0.008276918679 -0.0084948686814 -0.0088127747817 -0.0095250538395 -0.0095440525135 -0.0095656488464 
-0.0095934353435 -0.009629652436 -0.0096756799111 -0.0097325811735 -0.0098014574071 -0.0098836684899 -0.0099809661634 -0.01009561686 -0.010230537447 
-0.01038948562 -0.010577284998 -0.010800228037 -0.01106650858 -0.011386865245 -0.011774975933 -0.012247993566 -0.012825812389 -0.013529863372 
-0.014379791255 -0.015389438657 -0.016561906442 -0.017885637097 -0.019331612459 -0.020853605953 -0.022391083827 -0.023874319492 -0.025230891938 
-0.026392706582 -0.027302711761 -0.027919622939 -0.028217731882 -0.028150121583 -0.027726677803 -0.026964264446 -0.025882542107 -0.024501257652 
-0.022840943666 -0.020928965182 -0.018811677559 -0.016570756561 -0.014338295074 -0.012300746613 -0.010677807189 -0.0096621775818 -0.0093178891909 
-0.0094852403898 -0.0098463802381 -0.0098028498053 -0.0098205588308 -0.0098426812949 -0.0098725964584 -0.0099124162036 -0.0099634645152 -0.010026811967 
-0.010103632354 -0.010195449545 -0.010304247942 -0.010432641181 -0.010583987147 -0.010762636711 -0.010974189951 -0.011225936893 -0.011527391411 
-0.011890854523 -0.012332107176 -0.012870497647 -0.013528417968 -0.014329362155 -0.015294466515 -0.016437809182 -0.017761140221 -0.019249520189 
-0.020868801795 -0.022566227367 -0.024273814765 -0.02591409899 -0.027407315364 -0.028680106151 -0.029672210658 -0.030341395507 -0.030671799617 
-0.030622846178 -0.030209783175 -0.029455341636 -0.028383689242 -0.02701543208 -0.025365919595 -0.023449808635 -0.021294045687 -0.01895841343 
-0.016558593161 -0.014280578842 -0.012369586444 -0.01107361246 -0.010529288114 -0.010623497452 -0.01101382843 -0.010082784491 -0.010099130481 
-0.010121636412 -0.010153479237 -0.010196647293 -0.010252407756 -0.01032183097 -0.010406185586 -0.010507132949 -0.01062690747 -0.010768420856 
-0.01093547402 -0.01113294889 -0.011367162943 -0.011646302749 -0.011980999344 -0.012384993914 -0.012875713685 -0.013474330653 -0.014205125724 
-0.015093155918 -0.016160631538 -0.017421445422 -0.018876080913 -0.020506498114 -0.022274201183 -0.024120736678 -0.025971647008 -0.027742286551 
-0.029347220373 -0.030707967174 -0.031761184772 -0.032464051512 -0.032811241845 -0.032767893352 -0.032355773721 -0.03160527263 -0.030548016106 