# vtk DataFile Version 4.1
vtk output
ASCII
DATASET STRUCTURED_GRID
DIMENSIONS 51 51 1
POINTS 2601 float
0 0 0 0.02 0 0 0.04 0 0 
0.06 0 0 0.08 0 0 0.1 0 0 
0.12 0 0 0.14 0 0 0.16 0 0 
0.18 0 0 0.2 0 0 0.22 0 0 
0.24 0 0 0.26 0 0 0.28 0 0 
0.3 0 0 0.32 0 0 0.34 0 0 
0.36 0 0 0.38 0 0 0.4 0 0 
0.42 0 0 0.44 0 0 0.46 0 0 
0.48 0 0 0.5 0 0 0.52 0 0 
0.54 0 0 0.56 0 0 0.58 0 0 
0.6 0 0 0.62 0 0 0.64 0 0 
0.66 0 0 0.68 0 0 0.7 0 0 
0.72 0 0 0.74 0 0 0.76 0 0 
0.78 0 0 0.8 0 0 0.82 0 0 
0.84 0 0 0.86 0 0 0.88 0 0 
0.9 0 0 0.92 0 0 0.94 0 0 
0.96 0 0 0.98 0 0 1 0 0 
0 0.02 0 0.02 0.02 0 0.04 0.02 0 
0.06 0.02 0 0.08 0.02 0 0.1 0.02 0 
0.12 0.02 0 0.14 0.02 0 0.16 0.02 0 
0.18 0.02 0 0.2 0.02 0 0.22 0.02 0 
0.24 0.02 0 0.26 0.02 0 0.28 0.02 0 
0.3 0.02 0 0.32 0.02 0 0.34 0.02 0 
0.36 0.02 0 0.38 0.02 0 0.4 0.02 0 
0.42 0.02 0 0.44 0.02 0 0.46 0.02 0 
0.48 0.02 0 0.5 0.02 0 0.52 0.02 0 
0.54 0.02 0 0.56 0.02 0 0.58 0.02 0 
0.6 0.02 0 0.62 0.02 0 0.64 0.02 0 
0.66 0.02 0 0.68 0.02 0 0.7 0.02 0 
0.72 0.02 0 0.74 0.02 0 0.76 0.02 0 
0.78 0.02 0 0.8 0.02 0 0.82 0.02 0 
0.84 0.02 0 0.86 0.02 0 0.88 0.02 0 
0.9 0.02 0 0.92 0.02 0 0.94 0.02 0 
0.96 0.02 0 0.98 0.02 0 1 0.02 0 
0 0.04 0 0.02 0.04 0 0.04 0.04 0 
0.06 0.04 0 0.08 0.04 0 0.1 0.04 0 
0.12 0.04 0 0.14 0.04 0 0.16 0.04 0 
0.18 0.04 0 0.2 0.04 0 0.22 0.04 0 
0.24 0.04 0 0.26 0.04 0 0.28 0.04 0 
0.3 0.04 0 0.32 0.04 0 0.34 0.04 0 
0.36 0.04 0 0.38 0.04 0 0.4 0.04 0 
0.42 0.04 0 0.44 0.04 0 0.46 0.04 0 
0.48 0.04 0 0.5 0.04 0 0.52 0.04 0 
0.54 0.04 0 0.56 0.04 0 0.58 0.04 0 
0.6 0.04 0 0.62 0.04 0 0.64 0.04 0 
0.66 0.04 0 0.68 0.04 0 0.7 0.04 0 
0.72 0.04 0 0.74 0.04 0 0.76 0.04 0 
0.78 0.04 0 0.8 0.04 0 0.82 0.04 0 
0.84 0.04 0 0.86 0.04 0 0.88 0.04 0 
0.9 0.04 0 0.92 0.04 0 0.94 0.04 0 
0.96 0.04 0 0.98 0.04 0 1 0.04 0 
0 0.06 0 0.02 0.06 0 0.04 0.06 0 
0.06 0.06 0 0.08 0.06 0 0.1 0.06 0 
0.12 0.06 0 0.14 0.06 0 0.16 0.06 0 
0.18 0.06 0 0.2 0.06 0 0.22 0.06 0 
0.24 0.06 0 0.26 0.06 0 0.28 0.06 0 
0.3 0.06 0 0.32 0.06 0 0.34 0.06 0 
0.36 0.06 0 0.38 0.06 0 0.4 0.06 0 
0.42 0.06 0 0.44 0.06 0 0.46 0.06 0 
0.48 0.06 0 0.5 0.06 0 0.52 0.06 0 
0.54 0.06 0 0.56 0.06 0 0.58 0.06 0 
0.6 0.06 0 0.62 0.06 0 0.64 0.06 0 
0.66 0.06 0 0.68 0.06 0 0.7 0.06 0 
0.72 0.06 0 0.74 0.06 0 0.76 0.06 0 
0.78 0.06 0 0.8 0.06 0 0.82 0.06 0 
0.84 0.06 0 0.86 0.06 0 0.88 0.06 0 
0.9 0.06 0 0.92 0.06 0 0.94 0.06 0 
0.96 0.06 0 0.98 0.06 0 1 0.06 0 
0 0.08 0 0.02 0.08 0 0.04 0.08 0 
0.06 0.08 0 0.08 0.08 0 0.1 0.08 0 
0.12 0.08 0 0.14 0.08 0 0.16 0.08 0 
0.18 0.08 0 0.2 0.08 0 0.22 0.08 0 
0.24 0.08 0 0.26 0.08 0 0.28 0.08 0 
0.3 0.08 0 0.32 0.08 0 0.34 0.08 0 
0.36 0.08 0 0.38 0.08 0 0.4 0.08 0 
0.42 0.08 0 0.44 0.08 0 0.46 0.08 0 
0.48 0.08 0 0.5 0.08 0 0.52 0.08 0 
0.54 0.08 0 0.56 0.08 0 0.58 0.08 0 
0.6 0.08 0 0.62 0.08 0 0.64 0.08 0 
0.66 0.08 0 0.68 0.08 0 0.7 0.08 0 
0.72 0.08 0 0.74 0.08 0 0.76 0.08 0 
0.78 0.08 0 0.8 0.08 0 0.82 0.08 0 
0.84 0.08 0 0.86 0.08 0 0.88 0.08 0 
0.9 0.08 0 0.92 0.08 0 0.94 0.08 0 
0.96 0.08 0 0.98 0.08 0 1 0.08 0 
0 0.1 0 0.02 0.1 0 0.04 0.1 0 
0.06 0.1 0 0.08 0.1 0 0.1 0.1 0 
0.12 0.1 0 0.14 0.1 0 0.16 0.1 0 
0.18 0.1 0 0.2 0.1 0 0.22 0.1 0 
0.24 0.1 0 0.26 0.1 0 0.28 0.1 0 
0.3 0.1 0 0.32 0.1 0 0.34 0.1 0 
0.36 0.1 0 0.38 0.1 0 0.4 0.1 0 
0.42 0.1 0 0.44 0.1 0 0.46 0.1 0 
0.48 0.1 0 0.5 0.1 0 0.52 0.1 0 
0.54 0.1 0 0.56 0.1 0 0.58 0.1 0 
0.6 0.1 0 0.62 0.1 0 0.64 0.1 0 
0.66 0.1 0 0.68 0.1 0 0.7 0.1 0 
0.72 0.1 0 0.74 0.1 0 0.76 0.1 0 
0.78 0.1 0 0.8 0.1 0 0.82 0.1 0 
0.84 0.1 0 0.86 0.1 0 0.88 0.1 0 
0.9 0.1 0 0.92 0.1 0 0.94 0.1 0 
0.96 0.1 0 0.98 0.1 0 1 0.1 0 
0 0.12 0 0.02 0.12 0 0.04 0.12 0 
0.06 0.12 0 0.08 0.12 0 0.1 0.12 0 
0.12 0.12 0 0.14 0.12 0 0.16 0.12 0 
0.18 0.12 0 0.2 0.12 0 0.22 0.12 0 
0.24 0.12 0 0.26 0.12 0 0.28 0.12 0 
0.3 0.12 0 0.32 0.12 0 0.34 0.12 0 
0.36 0.12 0 0.38 0.12 0 0.4 0.12 0 
0.42 0.12 0 0.44 0.12 0 0.46 0.12 0 
0.48 0.12 0 0.5 0.12 0 0.52 0.12 0 
0.54 0.12 0 0.56 0.12 0 0.58 0.12 0 
0.6 0.12 0 0.62 0.12 0 0.64 0.12 0 
0.66 0.12 0 0.68 0.12 0 0.7 0.12 0 
0.72 0.12 0 0.74 0.12 0 0.76 0.12 0 
0.78 0.12 0 0.8 0.12 0 0.82 0.12 0 
0.84 0.12 0 0.86 0.12 0 0.88 0.12 0 
0.9 0.12 0 0.92 0.12 0 0.94 0.12 0 
0.96 0.12 0 0.98 0.12 0 1 0.12 0 
0 0.14 0 0.02 0.14 0 0.04 0.14 0 
0.06 0.14 0 0.08 0.14 0 0.1 0.14 0 
0.12 0.14 0 0.14 0.14 0 0.16 0.14 0 
0.18 0.14 0 0.2 0.14 0 0.22 0.14 0 
0.24 0.14 0 0.26 0.14 0 0.28 0.14 0 
0.3 0.14 0 0.32 0.14 0 0.34 0.14 0 
0.36 0.14 0 0.38 0.14 0 0.4 0.14 0 
0.42 0.14 0 0.44 0.14 0 0.46 0.14 0 
0.48 0.14 0 0.5 0.14 0 0.52 0.14 0 
0.54 0.14 0 0.56 0.14 0 0.58 0.14 0 
0.6 0.14 0 0.62 0.14 0 0.64 0.14 0 
0.66 0.14 0 0.68 0.14 0 0.7 0.14 0 
0.72 0.14 0 0.74 0.14 0 0.76 0.14 0 
0.78 0.14 0 0.8 0.14 0 0.82 0.14 0 
0.84 0.14 0 0.86 0.14 0 0.88 0.14 0 
0.9 0.14 0 0.92 0.14 0 0.94 0.14 0 
0.96 0.14 0 0.98 0.14 0 1 0.14 0 
0 0.16 0 0.02 0.16 0 0.04 0.16 0 
0.06 0.16 0 0.08 0.16 0 0.1 0.16 0 
0.12 0.16 0 0.14 0.16 0 0.16 0.16 0 
0.18 0.16 0 0.2 0.16 0 0.22 0.16 0 
0.24 0.16 0 0.26 0.16 0 0.28 0.16 0 
0.3 0.16 0 0.32 0.16 0 0.34 0.16 0 
0.36 0.16 0 0.38 0.16 0 0.4 0.16 0 
0.42 0.16 0 0.44 0.16 0 0.46 0.16 0 
0.48 0.16 0 0.5 0.16 0 0.52 0.16 0 
0.54 0.16 0 0.56 0.16 0 0.58 0.16 0 
0.6 0.16 0 0.62 0.16 0 0.64 0.16 0 
0.66 0.16 0 0.68 0.16 0 0.7 0.16 0 
0.72 0.16 0 0.74 0.16 0 0.76 0.16 0 
0.78 0.16 0 0.8 0.16 0 0.82 0.16 0 
0.84 0.16 0 0.86 0.16 0 0.88 0.16 0 
0.9 0.16 0 0.92 0.16 0 0.94 0.16 0 
0.96 0.16 0 0.98 0.16 0 1 0.16 0 
0 0.18 0 0.02 0.18 0 0.04 0.18 0 
0.06 0.18 0 0.08 0.18 0 0.1 0.18 0 
0.12 0.18 0 0.14 0.18 0 0.16 0.18 0 
0.18 0.18 0 0.2 0.18 0 0.22 0.18 0 
0.24 0.18 0 0.26 0.18 0 0.28 0.18 0 
0.3 0.18 0 0.32 0.18 0 0.34 0.18 0 
0.36 0.18 0 0.38 0.18 0 0.4 0.18 0 
0.42 0.18 0 0.44 0.18 0 0.46 0.18 0 
0.48 0.18 0 0.5 0.18 0 0.52 0.18 0 
0.54 0.18 0 0.56 0.18 0 0.58 0.18 0 
0.6 0.18 0 0.62 0.18 0 0.64 0.18 0 
0.66 0.18 0 0.68 0.18 0 0.7 0.18 0 
0.72 0.18 0 0.74 0.18 0 0.76 0.18 0 
0.78 0.18 0 0.8 0.18 0 0.82 0.18 0 
0.84 0.18 0 0.86 0.18 0 0.88 0.18 0 
0.9 0.18 0 0.92 0.18 0 0.94 0.18 0 
0.96 0.18 0 0.98 0.18 0 1 0.18 0 
0 0.2 0 0.02 0.2 0 0.04 0.2 0 
0.06 0.2 0 0.08 0.2 0 0.1 0.2 0 
0.12 0.2 0 0.14 0.2 0 0.16 0.2 0 
0.18 0.2 0 0.2 0.2 0 0.22 0.2 0 
0.24 0.2 0 0.26 0.2 0 0.28 0.2 0 
0.3 0.2 0 0.32 0.2 0 0.34 0.2 0 
0.36 0.2 0 0.38 0.2 0 0.4 0.2 0 
0.42 0.2 0 0.44 0.2 0 0.46 0.2 0 
0.48 0.2 0 0.5 0.2 0 0.52 0.2 0 
0.54 0.2 0 0.56 0.2 0 0.58 0.2 0 
0.6 0.2 0 0.62 0.2 0 0.64 0.2 0 
0.66 0.2 0 0.68 0.2 0 0.7 0.2 0 
0.72 0.2 0 0.74 0.2 0 0.76 0.2 0 
0.78 0.2 0 0.8 0.2 0 0.82 0.2 0 
0.84 0.2 0 0.86 0.2 0 0.88 0.2 0 
0.9 0.2 0 0.92 0.2 0 0.94 0.2 0 
0.96 0.2 0 0.98 0.2 0 1 0.2 0 
0 0.22 0 0.02 0.22 0 0.04 0.22 0 
0.06 0.22 0 0.08 0.22 0 0.1 0.22 0 
0.12 0.22 0 0.14 0.22 0 0.16 0.22 0 
0.18 0.22 0 0.2 0.22 0 0.22 0.22 0 
0.24 0.22 0 0.26 0.22 0 0.28 0.22 0 
0.3 0.22 0 0.32 0.22 0 0.34 0.22 0 
0.36 0.22 0 0.38 0.22 0 0.4 0.22 0 
0.42 0.22 0 0.44 0.22 0 0.46 0.22 0 
0.48 0.22 0 0.5 0.22 0 0.52 0.22 0 
0.54 0.22 0 0.56 0.22 0 0.58 0.22 0 
0.6 0.22 0 0.62 0.22 0 0.64 0.22 0 
0.66 0.22 0 0.68 0.22 0 0.7 0.22 0 
0.72 0.22 0 0.74 0.22 0 0.76 0.22 0 
0.78 0.22 0 0.8 0.22 0 0.82 0.22 0 
0.84 0.22 0 0.86 0.22 0 0.88 0.22 0 
0.9 0.22 0 0.92 0.22 0 0.94 0.22 0 
0.96 0.22 0 0.98 0.22 0 1 0.22 0 
0 0.24 0 0.02 0.24 0 0.04 0.24 0 
0.06 0.24 0 0.08 0.24 0 0.1 0.24 0 
0.12 0.24 0 0.14 0.24 0 0.16 0.24 0 
0.18 0.24 0 0.2 0.24 0 0.22 0.24 0 
0.24 0.24 0 0.26 0.24 0 0.28 0.24 0 
0.3 0.24 0 0.32 0.24 0 0.34 0.24 0 
0.36 0.24 0 0.38 0.24 0 0.4 0.24 0 
0.42 0.24 0 0.44 0.24 0 0.46 0.24 0 
0.48 0.24 0 0.5 0.24 0 0.52 0.24 0 
0.54 0.24 0 0.56 0.24 0 0.58 0.24 0 
0.6 0.24 0 0.62 0.24 0 0.64 0.24 0 
0.66 0.24 0 0.68 0.24 0 0.7 0.24 0 
0.72 0.24 0 0.74 0.24 0 0.76 0.24 0 
0.78 0.24 0 0.8 0.24 0 0.82 0.24 0 
0.84 0.24 0 0.86 0.24 0 0.88 0.24 0 
0.9 0.24 0 0.92 0.24 0 0.94 0.24 0 
0.96 0.24 0 0.98 0.24 0 1 0.24 0 
0 0.26 0 0.02 0.26 0 0.04 0.26 0 
0.06 0.26 0 0.08 0.26 0 0.1 0.26 0 
0.12 0.26 0 0.14 0.26 0 0.16 0.26 0 
0.18 0.26 0 0.2 0.26 0 0.22 0.26 0 
0.24 0.26 0 0.26 0.26 0 0.28 0.26 0 
0.3 0.26 0 0.32 0.26 0 0.34 0.26 0 
0.36 0.26 0 0.38 0.26 0 0.4 0.26 0 
0.42 0.26 0 0.44 0.26 0 0.46 0.26 0 
0.48 0.26 0 0.5 0.26 0 0.52 0.26 0 
0.54 0.26 0 0.56 0.26 0 0.58 0.26 0 
0.6 0.26 0 0.62 0.26 0 0.64 0.26 0 
0.66 0.26 0 0.68 0.26 0 0.7 0.26 0 
0.72 0.26 0 0.74 0.26 0 0.76 0.26 0 
0.78 0.26 0 0.8 0.26 0 0.82 0.26 0 
0.84 0.26 0 0.86 0.26 0 0.88 0.26 0 
0.9 0.26 0 0.92 0.26 0 0.94 0.26 0 
0.96 0.26 0 0.98 0.26 0 1 0.26 0 
0 0.28 0 0.02 0.28 0 0.04 0.28 0 
0.06 0.28 0 0.08 0.28 0 0.1 0.28 0 
0.12 0.28 0 0.14 0.28 0 0.16 0.28 0 
0.18 0.28 0 0.2 0.28 0 0.22 0.28 0 
0.24 0.28 0 0.26 0.28 0 0.28 0.28 0 
0.3 0.28 0 0.32 0.28 0 0.34 0.28 0 
0.36 0.28 0 0.38 0.28 0 0.4 0.28 0 
0.42 0.28 0 0.44 0.28 0 0.46 0.28 0 
0.48 0.28 0 0.5 0.28 0 0.52 0.28 0 
0.54 0.28 0 0.56 0.28 0 0.58 0.28 0 
0.6 0.28 0 0.62 0.28 0 0.64 0.28 0 
0.66 0.28 0 0.68 0.28 0 0.7 0.28 0 
0.72 0.28 0 0.74 0.28 0 0.76 0.28 0 
0.78 0.28 0 0.8 0.28 0 0.82 0.28 0 
0.84 0.28 0 0.86 0.28 0 0.88 0.28 0 
0.9 0.28 0 0.92 0.28 0 0.94 0.28 0 
0.96 0.28 0 0.98 0.28 0 1 0.28 0 
0 0.3 0 0.02 0.3 0 0.04 0.3 0 
0.06 0.3 0 0.08 0.3 0 0.1 0.3 0 
0.12 0.3 0 0.14 0.3 0 0.16 0.3 0 
0.18 0.3 0 0.2 0.3 0 0.22 0.3 0 
0.24 0.3 0 0.26 0.3 0 0.28 0.3 0 
0.3 0.3 0 0.32 0.3 0 0.34 0.3 0 
0.36 0.3 0 0.38 0.3 0 0.4 0.3 0 
0.42 0.3 0 0.44 0.3 0 0.46 0.3 0 
0.48 0.3 0 0.5 0.3 0 0.52 0.3 0 
0.54 0.3 0 0.56 0.3 0 0.58 0.3 0 
0.6 0.3 0 0.62 0.3 0 0.64 0.3 0 
0.66 0.3 0 0.68 0.3 0 0.7 0.3 0 
0.72 0.3 0 0.74 0.3 0 0.76 0.3 0 
0.78 0.3 0 0.8 0.3 0 0.82 0.3 0 
0.84 0.3 0 0.86 0.3 0 0.88 0.3 0 
0.9 0.3 0 0.92 0.3 0 0.94 0.3 0 
0.96 0.3 0 0.98 0.3 0 1 0.3 0 
0 0.32 0 0.02 0.32 0 0.04 0.32 0 
0.06 0.32 0 0.08 0.32 0 0.1 0.32 0 
0.12 0.32 0 0.14 0.32 0 0.16 0.32 0 
0.18 0.32 0 0.2 0.32 0 0.22 0.32 0 
0.24 0.32 0 0.26 0.32 0 0.28 0.32 0 
0.3 0.32 0 0.32 0.32 0 0.34 0.32 0 
0.36 0.32 0 0.38 0.32 0 0.4 0.32 0 
0.42 0.32 0 0.44 0.32 0 0.46 0.32 0 
0.48 0.32 0 0.5 0.32 0 0.52 0.32 0 
0.54 0.32 0 0.56 0.32 0 0.58 0.32 0 
[...]
CELL_DATA 2500
FIELD FieldData 2
pressure 1 2500 double
-0.0056420620271 -0.00562980502 -0.0056564267754 -0.0057257826783 -0.0058287141697 -0.0059546097882 -0.0060978758514 -0.0062583273811 -0.0064394873638 
-0.0066451911665 -0.0068789521192 -0.0071417982083 -0.0074314226383 -0.007746619677 -0.0080826404891 -0.0084331048997 -0.0087888752909 -0.0091375454842 
-0.009463599624 -0.0097489937363 -0.0099740532295 -0.010118489849 -0.010162372397 -0.010087066858 -0.0098762106735 -0.0095167351581 -0.0089999973932 
-0.008323078111 -0.0074902691402 -0.006514789337 -0.005424169292 -0.004278079124 -0.0031198086267 -0.0020049506821 -0.00099651153356 -0.00015988228826 
0.00044409211635 0.00076800642166 0.00078800523079 0.00051359390589 2.3115247394e-05 -0.00060172429055 -0.001261682511 -0.0018608912586 -0.0023343830271 
-0.0026683643592 -0.0028750574523 -0.0029753447438 -0.0029909771997 -0.0029499614274 -0.0056539413189 -0.0056451139305 -0.0056747660615 -0.005740116286 
-0.0058334645511 -0.0059474048251 -0.0060789430832 -0.0062282528698 -0.0063985444912 -0.006591145574 -0.0068102332605 -0.0070579636538 -0.0073329251056 
-0.0076347843729 -0.0079606142794 -0.0083046851324 -0.0086580199235 -0.009008266767 -0.0093400038595 -0.0096353587708 -0.0098747756198 -0.010037845846 
-0.010104222081 -0.010054600296 -0.0098717543209 -0.0095416600876 -0.0090546786717 -0.0084066934963 -0.0076001468908 -0.006645350944 -0.0056072445137 
-0.004498416246 -0.0033714302282 -0.0022837486976 -0.0012981638715 -0.0004790471321 0.00011418106069 0.00043585670483 0.00046446244569 0.00021325208832 
-0.00026204551202 -0.00082951011187 -0.0014317733818 -0.0019725386023 -0.0023900171704 -0.0026766556443 -0.0028503765168 -0.0029356545511 -0.0029527536429 
-0.0029106873415 -0.0056356806473 -0.0056278766436 -0.0056600415507 -0.0057255686516 -0.0058156916059 -0.0059227886485 -0.0060460827441 -0.0061828481916 
-0.0063397076244 -0.0065199321342 -0.0067270716276 -0.0069650985697 -0.0072360221993 -0.0075402032589 -0.0078751656971 -0.0082350029364 -0.0086102093105 
-0.0089878522268 -0.0093519457519 -0.0096839610951 -0.0099634743229 -0.010168985965 -0.010278895296 -0.010272592083 -0.010131650767 -0.0098410333424 
-0.0093901574982 -0.0087736187484 -0.0079907538093 -0.0070922671321 -0.0060811603314 -0.0049947392949 -0.0038825109916 -0.0028014953454 -0.0018141271712 
-0.00098435277503 -0.00037138678372 -2.1173856689e-05 4.3895012672e-05 -0.0001643597019 -0.00059180202612 -0.0011416076066 -0.0017023350522 -0.0022100771603 
-0.0025864887811 -0.0028196434465 -0.0029479167977 -0.0030012959625 -0.0030018116205 -0.0029500894063 -0.0055747264765 -0.0055725371659 -0.0056114116301 
-0.0056825870079 -0.0057751930301 -0.005880569546 -0.0059972292176 -0.0061259785635 -0.006274207899 -0.0064486056485 -0.0066559894674 -0.0069023611752 
-0.0071913118494 -0.0075233558888 -0.0078953323108 -0.008300181851 -0.0087270767449 -0.0091616573389 -0.0095863896109 -0.0099810849029 -0.010323609223 
-0.010590817838 -0.010759687313 -0.010808580162 -0.010718501652 -0.010474260068 -0.010065508105 -0.0094877433611 -0.0087502411373 -0.0078870181556 
-0.006901144314 -0.0058314959396 -0.0047255446582 -0.0036385268764 -0.0026313359028 -0.0017667686238 -0.0011036875929 -0.00068900996363 -0.00054799563853 
-0.00067427319207 -0.0010226631149 -0.0015100466554 -0.0020305413102 -0.0024996524477 -0.0028569943695 -0.003054022397 -0.0031425612919 -0.003163406652 
-0.0031451398571 -0.0030916499689 -0.0054642475058 -0.00547442534 -0.0055263583838 -0.0056080806165 -0.0057071545873 -0.0058159603543 -0.005932671618 
-0.0060627924195 -0.0062160109589 -0.0064031307443 -0.0066339465198 -0.0069157439928 -0.0072521937282 -0.0076427114036 -0.0080823636971 -0.0085620588483 
-0.0090687606433 -0.0095858155309 -0.01009341413 -0.010569214227 -0.010989234935 -0.01132897989 -0.011564705344 -0.011674687786 -0.011640395241 
-0.01144753047 -0.011086888222 -0.010554895718 -0.0098732133337 -0.0090409092578 -0.008080367301 -0.0070259669025 -0.0059216205169 -0.0048192910421 
-0.0037769336216 -0.0028551011538 -0.0021117174098 -0.0015948667496 -0.0013340013078 -0.0013308992782 -0.0015530659022 -0.0019336657541 -0.0023819223015 
-0.0028039571283 -0.0031176244238 -0.0033140526764 -0.0033835362289 -0.0033880401434 -0.0033618737832 -0.0033166465489 -0.0053019934669 -0.0053323237402 
-0.0054021063303 -0.0054974124523 -0.0056097104448 -0.005728672925 -0.0058574477818 -0.0060056333407 -0.0061864627482 -0.0064134302358 -0.0066975751183 
-0.0070459520768 -0.0074607641211 -0.0079392601392 -0.0084740271428 -0.009053264952 -0.0096611812684 -0.010278468193 -0.010882887472 -0.01145015212 
-0.011955021862 -0.01237251962 -0.012679157865 -0.012854075853 -0.012880057522 -0.012744433201 -0.012439943347 -0.011965676574 -0.011334142252 
-0.010541295347 -0.0096103148926 -0.0085725915477 -0.0074679505287 -0.0063439518863 -0.0052543461508 -0.0042563008978 -0.0034060166823 -0.0027525703442 
-0.002330283481 -0.0021506851979 -0.0021961511295 -0.0024181520344 -0.0027427817716 -0.0030840699376 -0.0033634795354 -0.0035395832135 -0.0036225677121 
-0.0036380730672 -0.0036216536532 -0.0035930315883 -0.0050930715882 -0.0051506802345 -0.005241453651 -0.0053564818904 -0.0054855166509 -0.0056261151671 
-0.0057849166027 -0.0059749318223 -0.0062115324476 -0.0065088001746 -0.0068770687585 -0.0073215278002 -0.0078419172564 -0.0084327849144 -0.0090837824517 
-0.0097801491879 -0.010503254509 -0.011231206294 -0.011939761722 -0.01260340831 -0.013196522125 -0.013694530874 -0.014074971147 -0.014318416806 
-0.014409300497 -0.01433671791 -0.01409530916 -0.013686375437 -0.013107814641 -0.012360110263 -0.011463620125 -0.010445889936 -0.0093419096749 
-0.0081938625543 -0.0070501563114 -0.0059634227627 -0.0049871570954 -0.0041708080345 -0.0035534860391 -0.0031570233196 -0.0029798513548 -0.0029937759523 
-0.0031457878773 -0.0033664478074 -0.0035859331647 -0.0037574972389 -0.003858525321 -0.0038942639755 -0.0039039606262 -0.0038974390238 -0.0048558522377 
-0.0049462342165 -0.0050589699963 -0.0051947176039 -0.0053503992768 -0.0055285953837 -0.0057393801709 -0.0059974623564 -0.0063181292696 -0.0067140467031 
-0.0071931371891 -0.0077577766711 -0.0084048170216 -0.0091257502608 -0.009907192575 -0.010731471436 -0.011577276911 -0.012420650342 -0.013236082663 
-0.013997641109 -0.014680094169 -0.015259885413 -0.015715960082 -0.016030487466 -0.016189542928 -0.01618379846 -0.016009305029 -0.015668447785 
-0.01514723931 -0.014449622606 -0.013592857088 -0.012600163914 -0.011501102208 -0.010331677316 -0.0091339541946 -0.0079548911352 -0.0068440949487 
-0.0058502886438 -0.0050165028377 -0.0043743980196 -0.0039386370562 -0.0037026988788 -0.0036377525252 -0.003696112682 -0.0038203323692 -0.0039570899468 
-0.0040693316595 -0.0041574324672 -0.0042051833288 -0.0042233727096 -0.0046205307932 -0.0047427791536 -0.004877114255 -0.005039360589 -0.0052336923268 
-0.0054671844759 -0.0057517771189 -0.0061017277283 -0.0065303239104 -0.007047226417 -0.0076570702261 -0.0083590577197 -0.0091468050653 -0.010008664153 
-0.010928258287 -0.011885123923 -0.012855783091 -0.013814890111 -0.014736370909 -0.015594552162 -0.016365086092 -0.017025705283 -0.017556878195 
-0.017942382573 -0.018169834313 -0.018231254905 -0.018123707871 -0.017850027132 -0.01738832072 -0.016744511308 -0.015932744442 -0.014971718194 
-0.013885203362 -0.012702469178 -0.011458431853 -0.010193305282 -0.0089514923295 -0.0077794744329 -0.0067225879278 -0.0058208153356 -0.0051040319895 
-0.0045874713575 -0.004268388889 -0.0041249943976 -0.0041187303961 -0.004201031999 -0.0043257026976 -0.0044517453613 -0.0045364211886 -0.0045795874134 
-0.0044250860712 -0.0045735082485 -0.0047318232528 -0.0049275386427 -0.0051726680045 -0.0054774139 -0.0058536029251 -0.0063133346596 -0.0068665163391 
-0.0075190753777 -0.0082721047583 -0.0091212817564 -0.010056855389 -0.011063998322 -0.012123339129 -0.013212056882 -0.014305073293 -0.015376238833 
-0.016399507235 -0.017349856968 -0.018204030894 -0.01894117806 -0.019543353974 -0.019995941788 -0.020288069803 -0.020413003759 -0.020368565798 
-0.020157645659 -0.019754957436 -0.01916713163 -0.018405287632 -0.017483633157 -0.016420080872 -0.015236904868 -0.01396134192 -0.012625971586 
-0.011268655143 -0.0099318114525 -0.008660839383 -0.0075015821011 -0.0064968684313 -0.0056822982333 -0.005081538746 -0.0047014907257 -0.0045279303283 
-0.0045231302295 -0.0046289670767 -0.0047774505577 -0.0049110255679 -0.0049820779936 -0.0043109996971 -0.0044815173616 -0.0046640263977 -0.0048992824816 
-0.0052049753011 -0.0055923601203 -0.0060715933537 -0.0066514729528 -0.0073379892655 -0.008133247247 -0.0090345094961 -0.010033760857 -0.011117762837 
-0.012268368385 -0.013463532378 -0.014678512798 -0.015887093232 -0.017062823338 -0.018179986426 -0.019214376221 -0.020143976628 -0.020949448257 
-0.02161451152 -0.022126277838 -0.022475459347 -0.022656548908 -0.022668038727 -0.022512673487 -0.022166039995 -0.021634635086 -0.020926756187 
-0.020052382046 -0.019023801488 -0.017856404872 -0.016569586917 -0.015187675974 -0.013740769147 -0.012265292073 -0.010804055043 -0.0094055467093 
-0.0081221584424 -0.007006965258 -0.0061085946745 -0.005463669792 -0.0050866410078 -0.0049583987739 -0.0050195735848 -0.0051805152699 -0.0053546457936 
-0.0054527451545 -0.0043169227495 -0.004503431792 -0.0047106345154 -0.0049897848587 -0.0053617846228 -0.0058373813225 -0.0064240909544 -0.0071270673774 
-0.0079484977682 -0.0088865196962 -0.0099344155978 -0.0110803359 -0.012307319275 -0.013594112441 -0.014916324811 -0.016247643874 -0.017561127122 
-0.018830249949 -0.020029750459 -0.021136391125 -0.022129500186 -0.022991383419 -0.023707637257 -0.024267256071 -0.024662663057 -0.024889703219 
-0.024947565955 -0.024838772724 -0.024543179878 -0.024066827967 -0.023415502852 -0.022595436956 -0.021613869691 -0.020479809861 -0.019205042962 
-0.017805410589 -0.016302328074 -0.014724441344 -0.013109223168 -0.011504153177 -0.0099669269877 -0.0085638707895 -0.007365395417 -0.0064370525026 
-0.0058249982875 -0.0055365974553 -0.0055228142415 -0.0056800715487 -0.0058834045686 -0.0060087387964 -0.004469790863 -0.004667157314 -0.0048992295174 
-0.0052239871539 -0.0056635402765 -0.0062271549372 -0.006919493532 -0.0077423819886 -0.0086942544389 -0.0097692073812 -0.010956459846 -0.012240067315 
-0.013599493093 -0.015010653119 -0.016447080663 -0.017881232123 -0.019285618238 -0.020633720568 -0.021900872814 -0.023064913055 -0.024106671016 
-0.025010340299 -0.025763566017 -0.026357424096 -0.026786276037 -0.027047443945 -0.027140902606 -0.027068999556 -0.026818032976 -0.026393641497 
-0.02579952461 -0.025038877733 -0.024114741157 -0.023030588138 -0.021791264926 -0.020404381849 -0.018882252324 -0.017244392394 -0.015520440352 
-0.01375314382 -0.012000736321 -0.010337543538 -0.0088510432364 -0.0076330048509 -0.0067622898527 -0.0062786956578 -0.0061535157016 -0.0062768443646 
-0.0064893822136 -0.0066588106959 -0.0047848806114 -0.00498892343 -0.0052449426837 -0.0056141275553 -0.0061183249297 -0.0067650137758 -0.0075564378912 
-0.0084913334291 -0.0095644212523 -0.010765789881 -0.012080372981 -0.013488273994 -0.014965667417 -0.016485878358 -0.018020670662 -0.019541436114 
-0.021020175597 -0.022430512961 -0.023748492768 -0.024953177299 -0.026027147873 -0.026956645484 -0.027731584035 -0.028345357122 -0.028794378647 
-0.029077586582 -0.029195853634 -0.029151446725 -0.028938039219 -0.028561058914 -0.028022650048 -0.02732378762 -0.026464350863 -0.025443437847 
-0.024260056205 -0.022914409302 -0.021409966372 -0.019756443489 -0.017973707702 -0.016096362999 -0.014178335302 -0.012296100027 -0.010548283473 
-0.0090483793304 -0.0079068264045 -0.0072000828487 -0.0069306426041 -0.0069985752881 -0.0072268906356 -0.0074274271869 -0.0052652188072 -0.0054722047582 
-0.0057498351461 -0.0061596519266 -0.0067223846582 -0.0074440448244 -0.0083247884615 -0.0093604019175 -0.010542044671 -0.011855654707 -0.013282066588 
-0.014797782948 -0.016375954914 -0.017987644258 -0.019603032581 -0.021192468196 -0.022727592352 -0.024182300163 -0.025533472793 -0.026761661566 
-0.027851338339 -0.028791005553 -0.029573046863 -0.030193225618 -0.030650116735 -0.030944335766 -0.031077712366 -0.031052403778 -0.030869640603 
-0.03053452981 -0.030048190415 -0.029410241129 -0.028618553117 -0.027669215553 -0.026556896424 -0.02527580822 -0.023821559325 -0.022194207734 
-0.020402731312 -0.018470869729 -0.016443788879 -0.014394171574 -0.012425130702 -0.010665915534 -0.0092552958984 -0.008308183069 -0.0078666496014 
-0.0078534505703 -0.0080782849034 -0.008314186939 -0.0059022706628 -0.0061085072836 -0.0064040844639 -0.0068488173816 -0.0074621415839 -0.0082488365373 
-0.0092071172196 -0.010330025893 -0.011605102452 -0.013014370094 -0.01453500635 -0.016140242454 -0.017800608285 -0.019485137583 -0.021162482911 
-0.022802126311 -0.024375503504 -0.025856892449 -0.027224306475 -0.028459905357 -0.029550250179 -0.03048628305 -0.031262839659 -0.031878096495 
-0.032332715328 -0.032628961263 -0.032769921041 -0.032756411669 -0.032598436521 -0.032299140344 -0.031859364898 -0.03127822902 -0.030552726121 
-0.029677433267 -0.028644450867 -0.027443844599 -0.026064994187 -0.024499307524 -0.022744763342 -0.020812539878 -0.01873544003 -0.016576846559 
-0.014437464974 -0.012455224009 -0.010791906404 -0.0095997576847 -0.0089656696522 -0.0088467941841 -0.0090511996065 -0.0093194475889 -0.0066776881862 
-0.0068793890611 -0.0071882967126 -0.0076613339125 -0.0083165484742 -0.0091574754644 -0.010180526988 -0.011375983681 -0.012728009372 -0.014215227843 
-0.015811569179 -0.017487501245 -0.019211234541 -0.020949904663 -0.022670850543 -0.024342883298 -0.025937356701 -0.027429258664 -0.028797844026 
-0.030027069088 -0.031105773945 -0.032027263887 -0.032788830977 -0.033390858212 -0.033835872455 -0.034127697546 -0.034270496285 -0.034265154524 
-0.034126526894 -0.033856716648 -0.033456610365 -0.03292547428 -0.032260465894 -0.031456061096 -0.030503559616 -0.029390940648 -0.028103473594 
-0.026625716033 -0.024945628275 -0.023061401679 -0.020991108814 -0.01878424664 -0.016532522504 -0.014374863707 -0.012489034929 -0.011060726189 
-0.010223679325 -0.0099791275889 -0.010146748646 -0.010439494415 -0.0075657833208 -0.00775912715 -0.0080764335109 -0.0085710788992 -0.0092594069547 
-0.010143632886 -0.011218293835 -0.012471076956 -0.013883294684 -0.015430652314 -0.017084435056 -0.018812724035 -0.020581642786 -0.022356697075 
-0.02410415753 -0.025792335244 -0.027392842922 -0.02888150339 -0.030238993624 -0.031451285294 -0.032509379184 -0.033408956399 -0.034149503085 
-0.034733314092 -0.035164601783 -0.035448401467 -0.035589726151 -0.035590760953 -0.035467030536 -0.035220586666 -0.034852605844 -0.034363009229 
-0.033749878794 -0.033008708415 -0.032131560375 -0.031106313144 -0.02991645947 -0.028542135709 -0.026963302291 -0.025166086923 -0.023152943287 
-0.02095623395 -0.018652930214 -0.01637528117 -0.014308864676 -0.012666579349 -0.011627916088 -0.011245251446 -0.011363953818 -0.011679432688 
-0.0085362405776 -0.0087176381505 -0.0090386524135 -0.0095485217537 -0.010261538104 -0.01117835771 -0.012291623904 -0.013586864051 -0.015043048486 
-0.016633606772 -0.018327627502 -0.020091138569 -0.021888508003 -0.023683903811 -0.025442780278 -0.027133285309 -0.028727462417 -0.030202139202 
-0.031539656199 -0.032727863747 -0.033759962772 -0.034633734445 -0.035350540124 -0.035914398286 -0.03633074144 -0.036605504437 -0.03674423921 
-0.036750574599 -0.036638336124 -0.036409790728 -0.036066615969 -0.03560965051 -0.035038352385 -0.034349969964 -0.033538446765 -0.032593240015 
-0.031498356955 -0.030232253005 -0.028769678777 -0.027086865254 -0.025171335272 -0.023036710581 -0.020740834163 -0.01840223506 -0.016205665821 
-0.01438317487 -0.013155808159 -0.012630410698 -0.01268946254 -0.013018334348 -0.0095567985731 -0.0097232099844 -0.010043623588 -0.010562793649 
-0.011292575677 -0.012231769467 -0.013371340361 -0.014695106202 -0.0161802979 -0.017798568633 -0.019517212926 -0.021300596844 -0.023111662742 
-0.024913592422 -0.026671354423 -0.028353168829 -0.029931675821 -0.031384951708 -0.032696881018 -0.033857239626 -0.034861163989 -0.035708218331 
-0.036401490769 -0.036946202831 -0.037348667849 -0.037615253677 -0.037751590101 -0.03776266749 -0.037659338887 -0.037444145537 -0.037119312999 
-0.036686657356 -0.036147130923 -0.035500022556 -0.034741832149 -0.033864815783 -0.032855400693 -0.031693015213 -0.030350381753 -0.02879695669 
-0.027007493567 -0.024977050492 -0.022741682971 -0.02040037812 -0.018128642821 -0.016168422746 -0.014775367294 -0.014110328219 -0.014101902862 
-0.014435602461 -0.010595742716 -0.010744539542 -0.011060321381 -0.011583311129 -0.012322460262 -0.013274596826 -0.01442926615 -0.015769045376 
-0.017269922946 -0.018902197326 -0.02063179707 -0.022421787962 -0.024234124869 -0.026031345354 -0.027778226036 -0.029443248022 -0.030999873746 
-0.032427363205 -0.03371116263 -0.034842743671 -0.035818865162 -0.036640776142 -0.037312760456 -0.037840940566 -0.038232005979 -0.038492209837 
-0.038627028355 -0.038642515029 -0.038546173991 -0.038340794068 -0.03802904457 -0.037613574524 -0.037096702313 -0.036479761672 -0.035762032662 
-0.034939214126 -0.034001484554 -0.032931445902 -0.03170288143 -0.03028210829 -0.028634465026 -0.026738352244 -0.024607320256 -0.022316683221 
-0.020025179114 -0.017974975624 -0.01644730736 -0.015653153395 -0.015573214639 -0.015904100818 -0.011623898579 -0.01175199782 -0.012059271372 
-0.012580962867 -0.013322747695 -0.014279422459 -0.015439347694 -0.016784254934 -0.018289275485 -0.01992377384 -0.021652700227 -0.0234383008 
-0.02524192578 -0.027025803639 -0.02875476361 -0.030397747889 -0.031929054862 -0.033329102863 -0.034584715904 -0.035688748294 -0.036639508463 
-0.037439418315 -0.038093699781 -0.038608887679 -0.038991510407 -0.039247519039 -0.039381881487 -0.039401407554 -0.039310681555 -0.039112486574 
-0.038809736007 -0.038405705687 -0.037903862794 -0.03730736017 -0.036618126437 -0.03583544812 -0.03495390327 -0.03396074903 -0.032833418627 
-0.031538733811 -0.030036697511 -0.02829240169 -0.026298109069 -0.024103333588 -0.021844024725 -0.019753287404 -0.01812770021 -0.017221600734 
-0.017070348837 -0.01739216731 -0.012616709221 -0.012717437065 -0.013013240429 -0.013529115242 -0.014267663385 -0.015221637155 -0.016378426702 
-0.01771918911 -0.019218559464 -0.020845361048 -0.022564043537 -0.024336470498 -0.026123754132 -0.027888123827 -0.029594656872 -0.031212850925 
-0.032717800047 -0.034090935402 -0.035320155989 -0.036399610667 -0.037328691989 -0.038110740896 -0.038751460978 -0.03925728059 -0.0396344624 
-0.03988838281 -0.04002341847 -0.040046180685 -0.039960153278 -0.039767214454 -0.039470357789 -0.039073313163 -0.038580464121 -0.037996464457 
-0.03732554253 -0.03657029223 -0.03572973609 -0.034796507951 -0.033753490752 -0.032571159794 -0.031208418143 -0.02962137737 -0.027783938666 
-0.025719790852 -0.023538025651 -0.02145453188 -0.019770652361 -0.018775124622 -0.018557058667 -0.018865317675 -0.013546843915 -0.013624131859 
-0.013898326159 -0.014404531176 -0.015134944325 -0.016080117706 -0.017226715707 -0.018555503368 -0.020040979066 -0.021651883007 -0.023352632744 
-0.025105111179 -0.026870550375 -0.028611414426 -0.030293180671 -0.031885905094 -0.033365362922 -0.034713730955 -0.035919852232 -0.036978767517 
-0.037890659065 -0.038659361033 -0.039290528186 -0.039790403237 -0.040164743812 -0.040418425568 -0.040555493515 -0.040579618057 -0.040498032238 
-0.040308896603 -0.040015503018 -0.039622016951 -0.039133533339 -0.038555874351 -0.037895098022 -0.037156585235 -0.036343429282 -0.035453684557 
-0.03447658917 -0.033388568763 -0.03215127205 -0.030716565351 -0.02904418599 -0.027133925355 -0.025066128398 -0.0230330458 -0.02133071528 
-0.020271943655 -0.019995508945 -0.020287633587 -0.014390835282 -0.014455794917 -0.014703363216 -0.01518791114 -0.015906509324 -0.016837591863 