# vtk DataFile Version 4.1
vtk output
ASCII
DATASET STRUCTURED_GRID
DIMENSIONS 51 51 1
POINTS 2601 float
0 0 0 0.02 0 0 0.04 0 0 
0.06 0 0 0.08 0 0 0.1 0 0 
0.12 0 0 0.14 0 0 0.16 0 0 
0.18 0 0 0.2 0 0 0.22 0 0 
0.24 0 0 0.26 0 0 0.28 0 0 
0.3 0 0 0.32 0 0 0.34 0 0 
0.36 0 0 0.38 0 0 0.4 0 0 
0.42 0 0 0.44 0 0 0.46 0 0 
0.48 0 0 0.5 0 0 0.52 0 0 
0.54 0 0 0.56 0 0 0.58 0 0 
0.6 0 0 0.62 0 0 0.64 0 0 
0.66 0 0 0.68 0 0 0.7 0 0 
0.72 0 0 0.74 0 0 0.76 0 0 
0.78 0 0 0.8 0 0 0.82 0 0 
0.84 0 0 0.86 0 0 0.88 0 0 
0.9 0 0 0.92 0 0 0.94 0 0 
0.96 0 0 0.98 0 0 1 0 0 
0 0.02 0 0.02 0.02 0 0.04 0.02 0 
0.06 0.02 0 0.08 0.02 0 0.1 0.02 0 
0.12 0.02 0 0.14 0.02 0 0.16 0.02 0 
0.18 0.02 0 0.2 0.02 0 0.22 0.02 0 
0.24 0.02 0 0.26 0.02 0 0.28 0.02 0 
0.3 0.02 0 0.32 0.02 0 0.34 0.02 0 
0.36 0.02 0 0.38 0.02 0 0.4 0.02 0 
0.42 0.02 0 0.44 0.02 0 0.46 0.02 0 
0.48 0.02 0 0.5 0.02 0 0.52 0.02 0 
0.54 0.02 0 0.56 0.02 0 0.58 0.02 0 
0.6 0.02 0 0.62 0.02 0 0.64 0.02 0 
0.66 0.02 0 0.68 0.02 0 0.7 0.02 0 
0.72 0.02 0 0.74 0.02 0 0.76 0.02 0 
0.78 0.02 0 0.8 0.02 0 0.82 0.02 0 
0.84 0.02 0 0.86 0.02 0 0.88 0.02 0 
0.9 0.02 0 0.92 0.02 0 0.94 0.02 0 
0.96 0.02 0 0.98 0.02 0 1 0.02 0 
0 0.04 0 0.02 0.04 0 0.04 0.04 0 
0.06 0.04 0 0.08 0.04 0 0.1 0.04 0 
0.12 0.04 0 0.14 0.04 0 0.16 0.04 0 
0.18 0.04 0 0.2 0.04 0 0.22 0.04 0 
0.24 0.04 0 0.26 0.04 0 0.28 0.04 0 
0.3 0.04 0 0.32 0.04 0 0.34 0.04 0 
0.36 0.04 0 0.38 0.04 0 0.4 0.04 0 
0.42 0.04 0 0.44 0.04 0 0.46 0.04 0 
0.48 0.04 0 0.5 0.04 0 0.52 0.04 0 
0.54 0.04 0 0.56 0.04 0 0.58 0.04 0 
0.6 0.04 0 0.62 0.04 0 0.64 0.04 0 
0.66 0.04 0 0.68 0.04 0 0.7 0.04 0 
0.72 0.04 0 0.74 0.04 0 0.76 0.04 0 
0.78 0.04 0 0.8 0.04 0 0.82 0.04 0 
0.84 0.04 0 0.86 0.04 0 0.88 0.04 0 
0.9 0.04 0 0.92 0.04 0 0.94 0.04 0 
0.96 0.04 0 0.98 0.04 0 1 0.04 0 
0 0.06 0 0.02 0.06 0 0.04 0.06 0 
0.06 0.06 0 0.08 0.06 0 0.1 0.06 0 
0.12 0.06 0 0.14 0.06 0 0.16 0.06 0 
0.18 0.06 0 0.2 0.06 0 0.22 0.06 0 
0.24 0.06 0 0.26 0.06 0 0.28 0.06 0 
0.3 0.06 0 0.32 0.06 0 0.34 0.06 0 
0.36 0.06 0 0.38 0.06 0 0.4 0.06 0 
0.42 0.06 0 0.44 0.06 0 0.46 0.06 0 
0.48 0.06 0 0.5 0.06 0 0.52 0.06 0 
0.54 0.06 0 0.56 0.06 0 0.58 0.06 0 
0.6 0.06 0 0.62 0.06 0 0.64 0.06 0 
0.66 0.06 0 0.68 0.06 0 0.7 0.06 0 
0.72 0.06 0 0.74 0.06 0 0.76 0.06 0 
0.78 0.06 0 0.8 0.06 0 0.82 0.06 0 
0.84 0.06 0 0.86 0.06 0 0.88 0.06 0 
0.9 0.06 0 0.92 0.06 0 0.94 0.06 0 
0.96 0.06 0 0.98 0.06 0 1 0.06 0 
0 0.08 0 0.02 0.08 0 0.04 0.08 0 
0.06 0.08 0 0.08 0.08 0 0.1 0.08 0 
0.12 0.08 0 0.14 0.08 0 0.16 0.08 0 
0.18 0.08 0 0.2 0.08 0 0.22 0.08 0 
0.24 0.08 0 0.26 0.08 0 0.28 0.08 0 
0.3 0.08 0 0.32 0.08 0 0.34 0.08 0 
0.36 0.08 0 0.38 0.08 0 0.4 0.08 0 
0.42 0.08 0 0.44 0.08 0 0.46 0.08 0 
0.48 0.08 0 0.5 0.08 0 0.52 0.08 0 
0.54 0.08 0 0.56 0.08 0 0.58 0.08 0 
0.6 0.08 0 0.62 0.08 0 0.64 0.08 0 
0.66 0.08 0 0.68 0.08 0 0.7 0.08 0 
0.72 0.08 0 0.74 0.08 0 0.76 0.08 0 
0.78 0.08 0 0.8 0.08 0 0.82 0.08 0 
0.84 0.08 0 0.86 0.08 0 0.88 0.08 0 
0.9 0.08 0 0.92 0.08 0 0.94 0.08 0 
0.96 0.08 0 0.98 0.08 0 1 0.08 0 
0 0.1 0 0.02 0.1 0 0.04 0.1 0 
0.06 0.1 0 0.08 0.1 0 0.1 0.1 0 
0.12 0.1 0 0.14 0.1 0 0.16 0.1 0 
0.18 0.1 0 0.2 0.1 0 0.22 0.1 0 
0.24 0.1 0 0.26 0.1 0 0.28 0.1 0 
0.3 0.1 0 0.32 0.1 0 0.34 0.1 0 
0.36 0.1 0 0.38 0.1 0 0.4 0.1 0 
0.42 0.1 0 0.44 0.1 0 0.46 0.1 0 
0.48 0.1 0 0.5 0.1 0 0.52 0.1 0 
0.54 0.1 0 0.56 0.1 0 0.58 0.1 0 
0.6 0.1 0 0.62 0.1 0 0.64 0.1 0 
0.66 0.1 0 0.68 0.1 0 0.7 0.1 0 
0.72 0.1 0 0.74 0.1 0 0.76 0.1 0 
0.78 0.1 0 0.8 0.1 0 0.82 0.1 0 
0.84 0.1 0 0.86 0.1 0 0.88 0.1 0 
0.9 0.1 0 0.92 0.1 0 0.94 0.1 0 
0.96 0.1 0 0.98 0.1 0 1 0.1 0 
0 0.12 0 0.02 0.12 0 0.04 0.12 0 
0.06 0.12 0 0.08 0.12 0 0.1 0.12 0 
0.12 0.12 0 0.14 0.12 0 0.16 0.12 0 
0.18 0.12 0 0.2 0.12 0 0.22 0.12 0 
0.24 0.12 0 0.26 0.12 0 0.28 0.12 0 
0.3 0.12 0 0.32 0.12 0 0.34 0.12 0 
0.36 0.12 0 0.38 0.12 0 0.4 0.12 0 
0.42 0.12 0 0.44 0.12 0 0.46 0.12 0 
0.48 0.12 0 0.5 0.12 0 0.52 0.12 0 
0.54 0.12 0 0.56 0.12 0 0.58 0.12 0 
0.6 0.12 0 0.62 0.12 0 0.64 0.12 0 
0.66 0.12 0 0.68 0.12 0 0.7 0.12 0 
0.72 0.12 0 0.74 0.12 0 0.76 0.12 0 
0.78 0.12 0 0.8 0.12 0 0.82 0.12 0 
0.84 0.12 0 0.86 0.12 0 0.88 0.12 0 
0.9 0.12 0 0.92 0.12 0 0.94 0.12 0 
0.96 0.12 0 0.98 0.12 0 1 0.12 0 
0 0.14 0 0.02 0.14 0 0.04 0.14 0 
0.06 0.14 0 0.08 0.14 0 0.1 0.14 0 
0.12 0.14 0 0.14 0.14 0 0.16 0.14 0 
0.18 0.14 0 0.2 0.14 0 0.22 0.14 0 
0.24 0.14 0 0.26 0.14 0 0.28 0.14 0 
0.3 0.14 0 0.32 0.14 0 0.34 0.14 0 
0.36 0.14 0 0.38 0.14 0 0.4 0.14 0 
0.42 0.14 0 0.44 0.14 0 0.46 0.14 0 
0.48 0.14 0 0.5 0.14 0 0.52 0.14 0 
0.54 0.14 0 0.56 0.14 0 0.58 0.14 0 
0.6 0.14 0 0.62 0.14 0 0.64 0.14 0 
0.66 0.14 0 0.68 0.14 0 0.7 0.14 0 
0.72 0.14 0 0.74 0.14 0 0.76 0.14 0 
0.78 0.14 0 0.8 0.14 0 0.82 0.14 0 
0.84 0.14 0 0.86 0.14 0 0.88 0.14 0 
0.9 0.14 0 0.92 0.14 0 0.94 0.14 0 
0.96 0.14 0 0.98 0.14 0 1 0.14 0 
0 0.16 0 0.02 0.16 0 0.04 0.16 0 
0.06 0.16 0 0.08 0.16 0 0.1 0.16 0 
0.12 0.16 0 0.14 0.16 0 0.16 0.16 0 
0.18 0.16 0 0.2 0.16 0 0.22 0.16 0 
0.24 0.16 0 0.26 0.16 0 0.28 0.16 0 
0.3 0.16 0 0.32 0.16 0 0.34 0.16 0 
0.36 0.16 0 0.38 0.16 0 0.4 0.16 0 
0.42 0.16 0 0.44 0.16 0 0.46 0.16 0 
0.48 0.16 0 0.5 0.16 0 0.52 0.16 0 
0.54 0.16 0 0.56 0.16 0 0.58 0.16 0 
0.6 0.16 0 0.62 0.16 0 0.64 0.16 0 
0.66 0.16 0 0.68 0.16 0 0.7 0.16 0 
0.72 0.16 0 0.74 0.16 0 0.76 0.16 0 
0.78 0.16 0 0.8 0.16 0 0.82 0.16 0 
0.84 0.16 0 0.86 0.16 0 0.88 0.16 0 
0.9 0.16 0 0.92 0.16 0 0.94 0.16 0 
0.96 0.16 0 0.98 0.16 0 1 0.16 0 
0 0.18 0 0.02 0.18 0 0.04 0.18 0 
0.06 0.18 0 0.08 0.18 0 0.1 0.18 0 
0.12 0.18 0 0.14 0.18 0 0.16 0.18 0 
0.18 0.18 0 0.2 0.18 0 0.22 0.18 0 
0.24 0.18 0 0.26 0.18 0 0.28 0.18 0 
0.3 0.18 0 0.32 0.18 0 0.34 0.18 0 
0.36 0.18 0 0.38 0.18 0 0.4 0.18 0 
0.42 0.18 0 0.44 0.18 0 0.46 0.18 0 
0.48 0.18 0 0.5 0.18 0 0.52 0.18 0 
0.54 0.18 0 0.56 0.18 0 0.58 0.18 0 
0.6 0.18 0 0.62 0.18 0 0.64 0.18 0 
0.66 0.18 0 0.68 0.18 0 0.7 0.18 0 
0.72 0.18 0 0.74 0.18 0 0.76 0.18 0 
0.78 0.18 0 0.8 0.18 0 0.82 0.18 0 
0.84 0.18 0 0.86 0.18 0 0.88 0.18 0 
0.9 0.18 0 0.92 0.18 0 0.94 0.18 0 
0.96 0.18 0 0.98 0.18 0 1 0.18 0 
0 0.2 0 0.02 0.2 0 0.04 0.2 0 
0.06 0.2 0 0.08 0.2 0 0.1 0.2 0 
0.12 0.2 0 0.14 0.2 0 0.16 0.2 0 
0.18 0.2 0 0.2 0.2 0 0.22 0.2 0 
0.24 0.2 0 0.26 0.2 0 0.28 0.2 0 
0.3 0.2 0 0.32 0.2 0 0.34 0.2 0 
0.36 0.2 0 0.38 0.2 0 0.4 0.2 0 
0.42 0.2 0 0.44 0.2 0 0.46 0.2 0 
0.48 0.2 0 0.5 0.2 0 0.52 0.2 0 
0.54 0.2 0 0.56 0.2 0 0.58 0.2 0 
0.6 0.2 0 0.62 0.2 0 0.64 0.2 0 
0.66 0.2 0 0.68 0.2 0 0.7 0.2 0 
0.72 0.2 0 0.74 0.2 0 0.76 0.2 0 
0.78 0.2 0 0.8 0.2 0 0.82 0.2 0 
0.84 0.2 0 0.86 0.2 0 0.88 0.2 0 
0.9 0.2 0 0.92 0.2 0 0.94 0.2 0 
0.96 0.2 0 0.98 0.2 0 1 0.2 0 
0 0.22 0 0.02 0.22 0 0.04 0.22 0 
0.06 0.22 0 0.08 0.22 0 0.1 0.22 0 
0.12 0.22 0 0.14 0.22 0 0.16 0.22 0 
0.18 0.22 0 0.2 0.22 0 0.22 0.22 0 
0.24 0.22 0 0.26 0.22 0 0.28 0.22 0 
0.3 0.22 0 0.32 0.22 0 0.34 0.22 0 
0.36 0.22 0 0.38 0.22 0 0.4 0.22 0 
0.42 0.22 0 0.44 0.22 0 0.46 0.22 0 
0.48 0.22 0 0.5 0.22 0 0.52 0.22 0 
0.54 0.22 0 0.56 0.22 0 0.58 0.22 0 
0.6 0.22 0 0.62 0.22 0 0.64 0.22 0 
0.66 0.22 0 0.68 0.22 0 0.7 0.22 0 
0.72 0.22 0 0.74 0.22 0 0.76 0.22 0 
0.78 0.22 0 0.8 0.22 0 0.82 0.22 0 
0.84 0.22 0 0.86 0.22 0 0.88 0.22 0 
0.9 0.22 0 0.92 0.22 0 0.94 0.22 0 
0.96 0.22 0 0.98 0.22 0 1 0.22 0 
0 0.24 0 0.02 0.24 0 0.04 0.24 0 
0.06 0.24 0 0.08 0.24 0 0.1 0.24 0 
0.12 0.24 0 0.14 0.24 0 0.16 0.24 0 
0.18 0.24 0 0.2 0.24 0 0.22 0.24 0 
0.24 0.24 0 0.26 0.24 0 0.28 0.24 0 
0.3 0.24 0 0.32 0.24 0 0.34 0.24 0 
0.36 0.24 0 0.38 0.24 0 0.4 0.24 0 
0.42 0.24 0 0.44 0.24 0 0.46 0.24 0 
0.48 0.24 0 0.5 0.24 0 0.52 0.24 0 
0.54 0.24 0 0.56 0.24 0 0.58 0.24 0 
0.6 0.24 0 0.62 0.24 0 0.64 0.24 0 
0.66 0.24 0 0.68 0.24 0 0.7 0.24 0 
0.72 0.24 0 0.74 0.24 0 0.76 0.24 0 
0.78 0.24 0 0.8 0.24 0 0.82 0.24 0 
0.84 0.24 0 0.86 0.24 0 0.88 0.24 0 
0.9 0.24 0 0.92 0.24 0 0.94 0.24 0 
0.96 0.24 0 0.98 0.24 0 1 0.24 0 
0 0.26 0 0.02 0.26 0 0.04 0.26 0 
0.06 0.26 0 0.08 0.26 0 0.1 0.26 0 
0.12 0.26 0 0.14 0.26 0 0.16 0.26 0 
0.18 0.26 0 0.2 0.26 0 0.22 0.26 0 
0.24 0.26 0 0.26 0.26 0 0.28 0.26 0 
0.3 0.26 0 0.32 0.26 0 0.34 0.26 0 
0.36 0.26 0 0.38 0.26 0 0.4 0.26 0 
0.42 0.26 0 0.44 0.26 0 0.46 0.26 0 
0.48 0.26 0 0.5 0.26 0 0.52 0.26 0 
0.54 0.26 0 0.56 0.26 0 0.58 0.26 0 
0.6 0.26 0 0.62 0.26 0 0.64 0.26 0 
0.66 0.26 0 0.68 0.26 0 0.7 0.26 0 
0.72 0.26 0 0.74 0.26 0 0.76 0.26 0 
0.78 0.26 0 0.8 0.26 0 0.82 0.26 0 
0.84 0.26 0 0.86 0.26 0 0.88 0.26 0 
0.9 0.26 0 0.92 0.26 0 0.94 0.26 0 
0.96 0.26 0 0.98 0.26 0 1 0.26 0 
0 0.28 0 0.02 0.28 0 0.04 0.28 0 
0.06 0.28 0 0.08 0.28 0 0.1 0.28 0 
0.12 0.28 0 0.14 0.28 0 0.16 0.28 0 
0.18 0.28 0 0.2 0.28 0 0.22 0.28 0 
0.24 0.28 0 0.26 0.28 0 0.28 0.28 0 
0.3 0.28 0 0.32 0.28 0 0.34 0.28 0 
0.36 0.28 0 0.38 0.28 0 0.4 0.28 0 
0.42 0.28 0 0.44 0.28 0 0.46 0.28 0 
0.48 0.28 0 0.5 0.28 0 0.52 0.28 0 
0.54 0.28 0 0.56 0.28 0 0.58 0.28 0 
0.6 0.28 0 0.62 0.28 0 0.64 0.28 0 
0.66 0.28 0 0.68 0.28 0 0.7 0.28 0 
0.72 0.28 0 0.74 0.28 0 0.76 0.28 0 
0.78 0.28 0 0.8 0.28 0 0.82 0.28 0 
0.84 0.28 0 0.86 0.28 0 0.88 0.28 0 
0.9 0.28 0 0.92 0.28 0 0.94 0.28 0 
0.96 0.28 0 0.98 0.28 0 1 0.28 0 
0 0.3 0 0.02 0.3 0 0.04 0.3 0 
0.06 0.3 0 0.08 0.3 0 0.1 0.3 0 
0.12 0.3 0 0.14 0.3 0 0.16 0.3 0 
0.18 0.3 0 0.2 0.3 0 0.22 0.3 0 
0.24 0.3 0 0.26 0.3 0 0.28 0.3 0 
0.3 0.3 0 0.32 0.3 0 0.34 0.3 0 
0.36 0.3 0 0.38 0.3 0 0.4 0.3 0 
0.42 0.3 0 0.44 0.3 0 0.46 0.3 0 
0.48 0.3 0 0.5 0.3 0 0.52 0.3 0 
0.54 0.3 0 0.56 0.3 0 0.58 0.3 0 
0.6 0.3 0 0.62 0.3 0 0.64 0.3 0 
0.66 0.3 0 0.68 0.3 0 0.7 0.3 0 
0.72 0.3 0 0.74 0.3 0 0.76 0.3 0 
0.78 0.3 0 0.8 0.3 0 0.82 0.3 0 
0.84 0.3 0 0.86 0.3 0 0.88 0.3 0 
0.9 0.3 0 0.92 0.3 0 0.94 0.3 0 
0.96 0.3 0 0.98 0.3 0 1 0.3 0 
0 0.32 0 0.02 0.32 0 0.04 0.32 0 
0.06 0.32 0 0.08 0.32 0 0.1 0.32 0 
0.12 0.32 0 0.14 0.32 0 0.16 0.32 0 
0.18 0.32 0 0.2 0.32 0 0.22 0.32 0 
0.24 0.32 0 0.26 0.32 0 0.28 0.32 0 
0.3 0.32 0 0.32 0.32 0 0.34 0.32 0 
0.36 0.32 0 0.38 0.32 0 0.4 0.32 0 
0.42 0.32 0 0.44 0.32 0 0.46 0.32 0 
0.48 0.32 0 0.5 0.32 0 0.52 0.32 0 
0.54 0.32 0 0.56 0.32 0 0.58 0.32 0 
[...]
CELL_DATA 2500
FIELD FieldData 2
pressure 1 2500 double
-0.0065674276567 -0.0065737218325 -0.006596291592 -0.0066325376203 -0.0066792291184 -0.006734310728 -0.0067970724558 -0.0068676939766 -0.0069468021601 
-0.007035080496 -0.007132911985 -0.0072398666597 -0.0073548809217 -0.007476176981 -0.0076012109875 -0.0077266782551 -0.007848359444 -0.0079608555603 
-0.008057444595 -0.0081300440308 -0.0081692804374 -0.0081647714881 -0.0081055855866 -0.0079808042277 -0.0077802268345 -0.0074952238147 -0.0071197202623 
-0.0066512929322 -0.0060924299297 -0.0054519980872 -0.0047484657606 -0.0040187941643 -0.003291049185 -0.0026006578338 -0.0019868071526 -0.0014885220252 
-0.0011397218181 -0.00096349005963 -0.00096642447654 -0.0011344586303 -0.0014215122822 -0.0017772006176 -0.0021475275902 -0.0024853893369 -0.0027602038515 
-0.0029630199156 -0.0030960253384 -0.0031661283173 -0.0031825484968 -0.003161240206 -0.0065659902074 -0.006573392721 -0.0065949095164 -0.0066277445388 
-0.0066698445811 -0.0067200640893 -0.0067783602248 -0.0068450751805 -0.0069207071026 -0.0070054926311 -0.0070991421564 -0.0072009515185 -0.0073098066905 
-0.0074241519211 -0.0075420121925 -0.0076607729955 -0.0077768366489 -0.0078854199567 -0.0079803708283 -0.0080540506787 -0.0080974300284 -0.0081003353315 
-0.0080518110871 -0.0079406761442 -0.0077562705122 -0.0074893438801 -0.0071330743446 -0.0066841320936 -0.0061436924037 -0.0055178131362 -0.0048428394674 
-0.0041359239828 -0.0034281920465 -0.0027553324151 -0.0021559755477 -0.0016683037418 -0.0013253072175 -0.0011491291027 -0.0011453517478 -0.0012985571925 
-0.0015712630228 -0.0018925677089 -0.0022298603545 -0.0025353985316 -0.0027814789856 -0.0029613356321 -0.0030793661209 -0.0031437741983 -0.003162423019 
-0.0031404914226 -0.0065491167219 -0.0065589333771 -0.006580148229 -0.0066105269643 -0.0066491419059 -0.0066958747671 -0.0067511551118 -0.006815480262 
-0.0068890064699 -0.0069714102265 -0.0070621665567 -0.0071606538855 -0.0072661278907 -0.0073778045247 -0.0074945986429 -0.0076146503952 -0.0077350620116 
-0.0078515940291 -0.0079583639693 -0.00804779009 -0.0081106602118 -0.0081362976146 -0.0081129686138 -0.0080285310026 -0.0078712530335 -0.0076307932089 
-0.0072992459953 -0.0068721364548 -0.0063491609329 -0.0057448602569 -0.0050884613441 -0.0043938236579 -0.0036925787336 -0.0030206948297 -0.0024169436628 
-0.0019197518418 -0.0015626670205 -0.0013688246016 -0.0013451589712 -0.0014776410178 -0.0017294353857 -0.0020443791554 -0.0023605619987 -0.002649359775 
-0.0028744669843 -0.0030309988659 -0.003129663495 -0.0031810848119 -0.0031929733016 -0.0031647681866 -0.0065171380835 -0.0065310360409 -0.0065530097362 
-0.0065822105739 -0.006618868015 -0.0066638307264 -0.0067179895764 -0.0067817306413 -0.0068548486703 -0.0069369584351 -0.0070277804046 -0.0071271910885 
-0.0072354170529 -0.0073527324544 -0.0074789073622 -0.0076128562041 -0.0077522000371 -0.0078928019803 -0.0080285837505 -0.0081514299345 -0.0082511867069 
-0.0083159631385 -0.0083326826617 -0.008287843591 -0.0081684750481 -0.0079632046564 -0.0076632762439 -0.0072634367642 -0.0067623972467 -0.0061858347323 
-0.00554243881 -0.0048544576012 -0.004151752401 -0.0034696240915 -0.0028466450915 -0.0023215419476 -0.0019288985487 -0.0016938836361 -0.0016265708424 
-0.0017170514775 -0.0019331753172 -0.0022235434019 -0.002528028049 -0.0028014876968 -0.0030184427968 -0.0031582962938 -0.0032391276271 -0.003276313774 
-0.0032798901469 -0.0032493188924 -0.0064726921892 -0.0064921981642 -0.0065161509868 -0.006545534533 -0.0065820007688 -0.0066272694356 -0.0066824167587 
-0.0067477239511 -0.0068231497255 -0.0069087666753 -0.0070049416556 -0.0071127105866 -0.0072334811029 -0.0073684643414 -0.0075182374232 -0.0076821925462 
-0.0078579007077 -0.0080408098554 -0.0082240120425 -0.0083980950073 -0.0085513644422 -0.0086703175303 -0.0087403301217 -0.0087465870473 -0.0086751413039 
-0.0085139672172 -0.0082539686345 -0.0078899040717 -0.0074211760077 -0.0068705612158 -0.0062428347964 -0.0055601256088 -0.0048510428358 -0.0041497194794 
-0.0034939672046 -0.0029224765439 -0.0024709391342 -0.002167187533 -0.0020258158695 -0.0020432997649 -0.0021952358216 -0.0024378240953 -0.0027154135795 
-0.0029735935893 -0.003180560204 -0.0033194802719 -0.003389731962 -0.003418255034 -0.0034175735931 -0.0033900460363 -0.0064205992092 -0.0064469388048 
-0.006474065136 -0.0065051633375 -0.0065434085012 -0.0065911288672 -0.006649591251 -0.0067194734566 -0.0068013922624 -0.0068962407418 -0.0070057149629 
-0.0071321517588 -0.0072779817966 -0.007445244295 -0.0076349855208 -0.0078464406018 -0.0080766179967 -0.0083199401912 -0.0085679647774 -0.0088095275286 
-0.009031145535 -0.0092176290257 -0.0093529585274 -0.0094213117663 -0.0094080939351 -0.0093009462169 -0.0090907463907 -0.0087725467371 -0.0083465272062 
-0.0078265532802 -0.007218023252 -0.0065411952884 -0.0058227609221 -0.0050950054237 -0.0043943165376 -0.0037588420211 -0.003225166978 -0.0028240463341 
-0.0025755256963 -0.0024841863268 -0.0025358117851 -0.0026971221143 -0.0029201867486 -0.0031519129741 -0.003347721163 -0.0034819466317 -0.0035599689297 
-0.0035916338313 -0.0035944447137 -0.0035748625293 -0.0063678674376 -0.0064021681314 -0.0064335773854 -0.0064679635932 -0.0065098563335 -0.0065622054085 
-0.0066269148235 -0.006705491936 -0.0067995290176 -0.0069113686088 -0.007044160458 -0.0072013596383 -0.0073862945172 -0.0076015406884 -0.0078479494178 
-0.0081241490571 -0.0084260332541 -0.0087463616566 -0.0090748223929 -0.0093983448135 -0.0097016348222 -0.0099679938283 -0.010180294176 -0.010321940732 
-0.010377848943 -0.010335417505 -0.010185491223 -0.0099232890141 -0.0095494202454 -0.0090671177637 -0.0084824545487 -0.0078135463297 -0.0070846555666 
-0.0063255908904 -0.0055706028629 -0.0048566002532 -0.0042205483054 -0.0036959780833 -0.0033087448806 -0.0030725407168 -0.0029850906198 -0.0030262821417 
-0.0031595662609 -0.0033377045662 -0.0035133369539 -0.0036532250434 -0.0037404505143 -0.0037852790155 -0.0038003332143 -0.0037927292325 -0.0063238055703 
-0.0063668111154 -0.0064035198414 -0.0064425373854 -0.0064898197795 -0.0065493197837 -0.0066239597527 -0.0067163257704 -0.0068295255271 -0.0069675043745 
-0.0071346377779 -0.0073354250409 -0.0075738637005 -0.0078524018545 -0.0081713456795 -0.008528213402 -0.008917208772 -0.0093291728653 -0.0097517996907 
-0.010170085772 -0.010567093362 -0.010924850667 -0.011225238417 -0.011450927216 -0.011586322933 -0.011618479634 -0.01153805501 -0.011340274922 
-0.011025915607 -0.010587864342 -0.010031977178 -0.009374171294 -0.0086359383987 -0.0078440162319 -0.0070297553781 -0.0062280117757 -0.0054753477555 
-0.004807405144 -0.0042554654666 -0.0038424756329 -0.0035790544398 -0.0034603370002 -0.0034647094904 -0.003555739103 -0.0036884906785 -0.0038209273901 
-0.0039257487243 -0.0039946209681 -0.0040310320158 -0.0040386872486 -0.0062991664951 -0.0063512580263 -0.0063939105676 -0.00643865002 -0.0064931942287 
-0.0065628399402 -0.0066516761259 -0.0067638240046 -0.0069040869941 -0.0070777542198 -0.0072904230281 -0.0075474464738 -0.0078528852114 -0.0082087815129 
-0.0086144437754 -0.0090657653612 -0.0095550276353 -0.010071025277 -0.010599410654 -0.011123384174 -0.011624519904 -0.012083572667 -0.012481403549 
-0.012799881276 -0.01302277702 -0.013136709255 -0.013132106649 -0.01300408748 -0.01275332676 -0.012364273631 -0.011841590366 -0.011198988662 
-0.010454913536 -0.009632547174 -0.0087596632288 -0.0078681546342 -0.0069930494491 -0.006170868088 -0.0054371983013 -0.0048234884017 -0.0043532305859 
-0.0040380044751 -0.003874048568 -0.0038405065038 -0.0039009565954 -0.0040105668745 -0.0041292589864 -0.0042289388749 -0.0042899345008 -0.0043152496842 
-0.0063054615724 -0.0063663342086 -0.0064151391997 -0.0064666474884 -0.0065306148864 -0.006613701638 -0.0067215188542 -0.0068599064881 -0.0070351131089 
-0.0072537881624 -0.0075226156634 -0.0078472885933 -0.0082316645461 -0.0086770156477 -0.0091811643647 -0.0097381338281 -0.010338161756 -0.010967920484 
-0.011611107249 -0.012249194966 -0.012862169731 -0.013429458509 -0.013930803241 -0.014347156894 -0.014661657319 -0.014860554588 -0.014934071229 
-0.014877182671 -0.014690347379 -0.014352426728 -0.013866256929 -0.013243403527 -0.01249919624 -0.011652967763 -0.01072827921 -0.0097530362856 
-0.0087593585535 -0.0077829922408 -0.006862030775 -0.0060347442423 -0.0053364105717 -0.0047951369209 -0.0044269007304 -0.0042305291858 -0.0041841802262 
-0.0042462945226 -0.0043647306041 -0.0044908287339 -0.0045841621003 -0.0046304896068 -0.0063537582878 -0.0064223331159 -0.006477274653 -0.006536759072 
-0.0066124387459 -0.0067125187006 -0.0068443076631 -0.007015119899 -0.007232629847 -0.0075048158609 -0.0078390048361 -0.0082409540006 -0.0087140623311 
-0.009258327463 -0.0098698398169 -0.010540647571 -0.011258840012 -0.012008995548 -0.012772849655 -0.013529975493 -0.014258709284 -0.014937008832 
-0.015543391303 -0.016057972543 -0.016463396406 -0.016745708297 -0.016895107782 -0.016906541904 -0.016780170171 -0.016492382502 -0.016044357153 
-0.015445753858 -0.01470887827 -0.013849035824 -0.012885044488 -0.011839874278 -0.010741295056 -0.0096223231822 -0.0085212000019 -0.0074805470405 
-0.0065452729607 -0.0057588095903 -0.005157385898 -0.0047624343345 -0.0045721654213 -0.0045553634889 -0.0046535468159 -0.0047963471718 -0.0049265439866 
-0.0049967403794 -0.0064535710335 -0.006528295492 -0.0065893979648 -0.0066581010346 -0.0067478609934 -0.0068685645092 -0.0070289236297 -0.0072376474443 
-0.0075039095075 -0.0078366221781 -0.008243475434 -0.0087301241187 -0.0092989902665 -0.0099485735729 -0.01067313814 -0.011462641989 -0.012302992607 
-0.013176622465 -0.014063093896 -0.014940009548 -0.015783850203 -0.016570996329 -0.017278872627 -0.017886931355 -0.018377588484 -0.018737019059 
-0.01895566467 -0.019028562367 -0.018955653607 -0.018713893758 -0.018303770052 -0.017733320694 -0.017012049783 -0.016151276097 -0.01516480217 
-0.014069921383 -0.012888703447 -0.011649418911 -0.010387822248 -0.0091477977527 -0.0079807399699 -0.0069428770785 -0.0060896594084 -0.0054665432069 
-0.0050964005791 -0.0049661768456 -0.0050201989819 -0.0051722797859 -0.0053332754852 -0.0054276233865 -0.0066122155551 -0.0066914252304 -0.0067587038943 
-0.0068378480393 -0.006944110033 -0.0070886556935 -0.0072814250134 -0.0075326467882 -0.0078526676987 -0.0082510273489 -0.008735684363 -0.0093116940409 
-0.0099803001946 -0.010738413798 -0.011578371804 -0.012487952584 -0.013450831165 -0.014447066977 -0.015453957429 -0.016446863366 -0.017400305994 
-0.018289258526 -0.019090211646 -0.019782260763 -0.020347988811 -0.020774042173 -0.02105137711 -0.02117548344 -0.021146368661 -0.020943982978 
-0.02056957433 -0.020029924945 -0.019332124278 -0.018483813558 -0.017493857322 -0.016373502692 -0.015138120766 -0.013809457974 -0.012418113725 
-0.011005763942 -0.0096263719035 -0.0083452460624 -0.0072344724635 -0.0063632180743 -0.0057820775003 -0.0055030186081 -0.0054821812092 -0.0056220014209 
-0.0058025215676 -0.0059319433917 -0.0068344126333 -0.0069164181867 -0.0069898515626 -0.0070807350913 -0.0072055651151 -0.0073764331535 -0.007604621422 
-0.0079016431682 -0.0082786369944 -0.0087457458656 -0.0093107519895 -0.0099779104963 -0.010747195104 -0.011613869409 -0.012568218306 -0.013595830847 
-0.014677916501 -0.015792049019 -0.016912958924 -0.018013683465 -0.01906697644 -0.020046508712 -0.02092813172 -0.021690981591 -0.022318165815 
-0.022797147768 -0.023119919929 -0.023282847659 -0.023286277741 -0.023114923801 -0.022772286974 -0.022264231194 -0.021595999141 -0.020772220344 
-0.019797336411 -0.018676726925 -0.017418649671 -0.016036998096 -0.014554793297 -0.013008006847 -0.011448843983 -0.0099470631579 -0.008587360196 
-0.007460444148 -0.0066457528517 -0.0061858578894 -0.0060587329827 -0.0061667098204 -0.0063675027995 -0.0065275417228 -0.0071219295194 -0.007205064624 
-0.0072847432152 -0.007388426176 -0.0075332209443 -0.0077321764576 -0.0079977510785 -0.0083422614591 -0.0087776585314 -0.0093143227032 -0.0099596237281 
-0.010716926096 -0.011584941435 -0.012557152315 -0.013621833965 -0.014762153213 -0.015956749225 -0.017180428153 -0.018405308359 -0.019602299525 
-0.020742445443 -0.021798372285 -0.022745689318 -0.023563901019 -0.02423697105 -0.024753722275 -0.025107611107 -0.025296226532 -0.025320740369 
-0.025171556235 -0.024855238915 -0.024377212366 -0.023741684394 -0.022951216104 -0.022006860173 -0.020908972357 -0.019658935829 -0.018262125921 
-0.016732192643 -0.015096312192 -0.013400572023 -0.0117139613 -0.010128557816 -0.0087526836799 -0.0076936477507 -0.0070282623875 -0.00676531533 
-0.0068185461135 -0.0070275378312 -0.0072201846416 -0.0074734264 -0.0075562299295 -0.0076421796477 -0.0077591759946 -0.0079247681263 -0.0081528061422 
-0.0084563589456 -0.0088485403119 -0.0093418570318 -0.0099466115817 -0.010669681051 -0.011513616819 -0.012475756511 -0.013547862761 -0.014715995038 
-0.015960850614 -0.017258263888 -0.018580262856 -0.019896563248 -0.021175996586 -0.022388116459 -0.023504933897 -0.024502083211 -0.025359701173 
-0.026063125453 -0.026602901239 -0.026974214166 -0.027176373878 -0.027211652075 -0.027076147962 -0.026779597098 -0.026327566861 -0.025724080262 
-0.024970932539 -0.024067285337 -0.023009824762 -0.021794056539 -0.02041714396 -0.018882503035 -0.017206117702 -0.015423951436 -0.013598868916 
-0.011824309918 -0.010220748837 -0.0089201969828 -0.0080348374836 -0.0076111362239 -0.0075857028687 -0.0077880875384 -0.0080122050171 -0.0078846373304 
-0.0079658321219 -0.0080577385135 -0.0081881596617 -0.0083748617676 -0.0086318788552 -0.0089727745425 -0.0094113178041 -0.0099601496282 -0.010629422311 
-0.011425649486 -0.012350501156 -0.013399956562 -0.014563944034 -0.015826338384 -0.017165171478 -0.01855350155 -0.019960844724 -0.021354582262 
-0.022701675663 -0.023970674157 -0.025133175377 -0.026165036727 -0.027047565959 -0.02776774075 -0.028317937331 -0.028695461046 -0.028901382999 
-0.028939112147 -0.028809957495 -0.028526077933 -0.028093675264 -0.027517650402 -0.026800443145 -0.025940951913 -0.02493408059 -0.023771316316 
-0.02244287191 -0.020942083775 -0.019272389476 -0.017456457225 -0.015546012053 -0.01362947844 -0.01183284603 -0.010307667556 -0.009199990788 
-0.0085982166382 -0.0084723232158 -0.0086527694348 -0.0089033085276 -0.0083486594359 -0.0084269685354 -0.0085242925852 -0.0086679421343 -0.008875257605 
-0.0091601826245 -0.0095366985714 -0.010018721754 -0.010618933244 -0.011347490599 -0.012210511117 -0.013208710707 -0.014336747926 -0.015582791803 
-0.016928368094 -0.01834892274 -0.019815102356 -0.021294000851 -0.022750901959 -0.02415142317 -0.025463289239 -0.026657834637 -0.027711770705 
-0.028607720694 -0.029334324484 -0.029886037498 -0.030262107319 -0.030465055722 -0.030499565935 -0.030370992111 -0.03009256583 -0.02967180253 
-0.029115369906 -0.028427534055 -0.027608723023 -0.026654306213 -0.025554070859 -0.024293370328 -0.022856834637 -0.021235305197 -0.019436110868 
-0.017495602546 -0.015491039193 -0.013546712 -0.011826968045 -0.010507702803 -0.0097206323078 -0.0094777783229 -0.0096232641667 -0.0098984924097 
-0.0088563176135 -0.0089305300849 -0.0090326299073 -0.0091887821177 -0.0094154740597 -0.0097264719348 -0.010135642674 -0.010656886229 -0.011303076875 
-0.012084340178 -0.013006250942 -0.014068748774 -0.01526524336 -0.016582017165 -0.017998369076 -0.019487645663 -0.021018181077 -0.02255493273 
-0.024061642275 -0.025502800575 -0.026845415988 -0.02806131512 -0.029128119753 -0.030029766974 -0.030756713284 -0.031305236068 -0.031675896355 
-0.031872635436 -0.031900800216 -0.031768499 -0.031488867943 -0.031071097287 -0.030524161014 -0.029855291786 -0.029068057099 -0.028160296866 
-0.027122659867 -0.025938467776 -0.024586035224 -0.023044835358 -0.021306271994 -0.019388437405 -0.017352116254 -0.015312664796 -0.013439395299 
-0.011931839151 -0.010963372945 -0.010593699118 -0.010692292813 -0.010984805502 -0.0093967947466 -0.0094659058076 -0.0095719047694 -0.0097392969846 
-0.0099835849847 -0.010317872293 -0.010755660585 -0.011310943038 -0.011996706717 -0.012822877745 -0.013794707131 -0.014911412066 -0.016165053341 
-0.017540168507 -0.019014435521 -0.020559185877 -0.022140787061 -0.023722663033 -0.025267281804 -0.026738092417 -0.028102253258 -0.029332112756 
-0.030406171806 -0.031309875196 -0.032035223816 -0.032579483356 -0.03294438865 -0.033135006699 -0.033154893888 -0.033016411756 -0.03272993082 
-0.032306715252 -0.031758623561 -0.031096556497 -0.03032820707 -0.029455608648 -0.02847270152 -0.027363689138 -0.026103672263 -0.024663344489 
-0.023019304335 -0.021170155909 -0.01915617964 -0.01707716254 -0.015099132974 -0.013437347566 -0.012302231193 -0.011803361266 -0.011845712255 
-0.012148034572 -0.0099583920288 -0.010021556654 -0.010130267904 -0.010307233361 -0.010566623337 -0.01092060073 -0.011382314317 -0.011965730013 
-0.012683783489 -0.01354633684 -0.014558365265 -0.015718259557 -0.017016874642 -0.018437675564 -0.019956785211 -0.021543929379 -0.023164160812 
-0.024779678012 -0.026351781585 -0.027843798858 -0.02922309629 -0.030462484875 -0.031541661 -0.03244731986 -0.033172112711 -0.033714026424 
-0.03407517865 -0.034260265978 -0.034274611971 -0.034127412422 -0.033829345902 -0.033393496006 -0.032834607773 -0.032167386878 -0.031404253164 
-0.030552478524 -0.029610980613 -0.028567530738 -0.027397537388 -0.026066557195 -0.02453902953 -0.022794644479 -0.020850893138 -0.018786581813 
-0.016756458853 -0.014982525244 -0.013705150737 -0.01308252933 -0.013062826695 -0.013367840272 -0.010529219468 -0.010585622399 -0.01069556461 
-0.010879894345 -0.011151292805 -0.011520877549 -0.012001327923 -0.012606407568 -0.013348989692 -0.01423890719 -0.015280723606 -0.016472120562 
-0.017803386488 -0.019257003094 -0.020807961639 -0.022425073652 -0.024072424838 -0.025711147526 -0.027302281558 -0.028809197122 -0.030199383757 
-0.03144653099 -0.03253132543 -0.033440860478 -0.034168320177 -0.034711736204 -0.035072297313 -0.035254315018 -0.035264717785 -0.035107733287 
-0.034794954609 -0.034341242594 -0.03376402571 -0.033081745012 -0.032311498202 -0.031466007247 -0.030550177878 -0.029557426082 -0.028466763616 
-0.027242710246 -0.025841449014 -0.024226148318 -0.022391203939 -0.020390707117 -0.01836106097 -0.016521775788 -0.015134255852 -0.01440085436 
-0.014317489414 -0.014619100928 -0.011097843942 -0.01114646652 -0.011255758212 -0.011444832932 -0.011724748053 -0.012105520297 -0.012599192622 
-0.013219179974 -0.013978261911 -0.014886071612 -0.015946796001 -0.017157922553 -0.018509332105 -0.019982873242 -0.021553133358 -0.023188386666 
-0.024851970167 -0.026504818185 -0.028108039381 -0.029624938435 -0.031023601493 -0.032278460853 -0.0333704274 -0.034286955534 -0.035021287852 
-0.035570243572 -0.03593409551 -0.036115642345 -0.036122966481 -0.035955985267 -0.035627021323 -0.035152457342 -0.034552195743 -0.033847977559 
-0.033061050613 -0.032209371251 -0.031304034291 -0.030345243302 -0.029318144314 -0.028190207132 -0.026913999992 -0.025440052401 -0.02374130586 
-0.021845447999 -0.019865069471 -0.018008501583 -0.016548269639 -0.015723725703 -0.015579666833 -0.015873380249 -0.011654034024 -0.01169289145 
-0.011799481847 -0.011990369025 -0.012275115931 -0.012662516665 -0.013163768346 -0.013791803135 -0.014559129327 -0.015475072295 -0.016543775453 
-0.017762760977 -0.01912172045 -0.020602589728 -0.022179946371 -0.023821795472 -0.025491547466 -0.027150434708 -0.028759565935 -0.030282658417 
-0.031688383496 -0.032951209289 -0.034052206865 -0.034978995885 -0.035723680959 -0.03628199755 -0.03665247126 -0.036835962219 -0.036839816346 
-0.036663664347 -0.036318563428 -0.035822402382 -0.035197214929 -0.034467441044 -0.033657907075 -0.032791089671 -0.031883849978 -0.030943385884 
-0.029962443634 -0.028914679359 -0.02775374843 -0.026422358355 -0.024875416248 -0.023114731451 -0.021225650561 -0.019397885271 -0.017905019456 
-0.017014256406 -0.01681701233 -0.017100267724 -0.012187540674 -0.012216701428 -0.012316249289 -0.01250605498 -0.012792060897 -0.013181511916 