# vtk DataFile Version 4.1
vtk output
ASCII
DATASET STRUCTURED_GRID
DIMENSIONS 51 51 1
POINTS 2601 float
0 0 0 0.02 0 0 0.04 0 0 
0.06 0 0 0.08 0 0 0.1 0 0 
0.12 0 0 0.14 0 0 0.16 0 0 
0.18 0 0 0.2 0 0 0.22 0 0 
0.24 0 0 0.26 0 0 0.28 0 0 
0.3 0 0 0.32 0 0 0.34 0 0 
0.36 0 0 0.38 0 0 0.4 0 0 
0.42 0 0 0.44 0 0 0.46 0 0 
0.48 0 0 0.5 0 0 0.52 0 0 
0.54 0 0 0.56 0 0 0.58 0 0 
0.6 0 0 0.62 0 0 0.64 0 0 
0.66 0 0 0.68 0 0 0.7 0 0 
0.72 0 0 0.74 0 0 0.76 0 0 
0.78 0 0 0.8 0 0 0.82 0 0 
0.84 0 0 0.86 0 0 0.88 0 0 
0.9 0 0 0.92 0 0 0.94 0 0 
0.96 0 0 0.98 0 0 1 0 0 
0 0.02 0 0.02 0.02 0 0.04 0.02 0 
0.06 0.02 0 0.08 0.02 0 0.1 0.02 0 
0.12 0.02 0 0.14 0.02 0 0.16 0.02 0 
0.18 0.02 0 0.2 0.02 0 0.22 0.02 0 
0.24 0.02 0 0.26 0.02 0 0.28 0.02 0 
0.3 0.02 0 0.32 0.02 0 0.34 0.02 0 
0.36 0.02 0 0.38 0.02 0 0.4 0.02 0 
0.42 0.02 0 0.44 0.02 0 0.46 0.02 0 
0.48 0.02 0 0.5 0.02 0 0.52 0.02 0 
0.54 0.02 0 0.56 0.02 0 0.58 0.02 0 
0.6 0.02 0 0.62 0.02 0 0.64 0.02 0 
0.66 0.02 0 0.68 0.02 0 0.7 0.02 0 
0.72 0.02 0 0.74 0.02 0 0.76 0.02 0 
0.78 0.02 0 0.8 0.02 0 0.82 0.02 0 
0.84 0.02 0 0.86 0.02 0 0.88 0.02 0 
0.9 0.02 0 0.92 0.02 0 0.94 0.02 0 
0.96 0.02 0 0.98 0.02 0 1 0.02 0 
0 0.04 0 0.02 0.04 0 0.04 0.04 0 
0.06 0.04 0 0.08 0.04 0 0.1 0.04 0 
0.12 0.04 0 0.14 0.04 0 0.16 0.04 0 
0.18 0.04 0 0.2 0.04 0 0.22 0.04 0 
0.24 0.04 0 0.26 0.04 0 0.28 0.04 0 
0.3 0.04 0 0.32 0.04 0 0.34 0.04 0 
0.36 0.04 0 0.38 0.04 0 0.4 0.04 0 
0.42 0.04 0 0.44 0.04 0 0.46 0.04 0 
0.48 0.04 0 0.5 0.04 0 0.52 0.04 0 
0.54 0.04 0 0.56 0.04 0 0.58 0.04 0 
0.6 0.04 0 0.62 0.04 0 0.64 0.04 0 
0.66 0.04 0 0.68 0.04 0 0.7 0.04 0 
0.72 0.04 0 0.74 0.04 0 0.76 0.04 0 
0.78 0.04 0 0.8 0.04 0 0.82 0.04 0 
0.84 0.04 0 0.86 0.04 0 0.88 0.04 0 
0.9 0.04 0 0.92 0.04 0 0.94 0.04 0 
0.96 0.04 0 0.98 0.04 0 1 0.04 0 
0 0.06 0 0.02 0.06 0 0.04 0.06 0 
0.06 0.06 0 0.08 0.06 0 0.1 0.06 0 
0.12 0.06 0 0.14 0.06 0 0.16 0.06 0 
0.18 0.06 0 0.2 0.06 0 0.22 0.06 0 
0.24 0.06 0 0.26 0.06 0 0.28 0.06 0 
0.3 0.06 0 0.32 0.06 0 0.34 0.06 0 
0.36 0.06 0 0.38 0.06 0 0.4 0.06 0 
0.42 0.06 0 0.44 0.06 0 0.46 0.06 0 
0.48 0.06 0 0.5 0.06 0 0.52 0.06 0 
0.54 0.06 0 0.56 0.06 0 0.58 0.06 0 
0.6 0.06 0 0.62 0.06 0 0.64 0.06 0 
0.66 0.06 0 0.68 0.06 0 0.7 0.06 0 
0.72 0.06 0 0.74 0.06 0 0.76 0.06 0 
0.78 0.06 0 0.8 0.06 0 0.82 0.06 0 
0.84 0.06 0 0.86 0.06 0 0.88 0.06 0 
0.9 0.06 0 0.92 0.06 0 0.94 0.06 0 
0.96 0.06 0 0.98 0.06 0 1 0.06 0 
0 0.08 0 0.02 0.08 0 0.04 0.08 0 
0.06 0.08 0 0.08 0.08 0 0.1 0.08 0 
0.12 0.08 0 0.14 0.08 0 0.16 0.08 0 
0.18 0.08 0 0.2 0.08 0 0.22 0.08 0 
0.24 0.08 0 0.26 0.08 0 0.28 0.08 0 
0.3 0.08 0 0.32 0.08 0 0.34 0.08 0 
0.36 0.08 0 0.38 0.08 0 0.4 0.08 0 
0.42 0.08 0 0.44 0.08 0 0.46 0.08 0 
0.48 0.08 0 0.5 0.08 0 0.52 0.08 0 
0.54 0.08 0 0.56 0.08 0 0.58 0.08 0 
0.6 0.08 0 0.62 0.08 0 0.64 0.08 0 
0.66 0.08 0 0.68 0.08 0 0.7 0.08 0 
0.72 0.08 0 0.74 0.08 0 0.76 0.08 0 
0.78 0.08 0 0.8 0.08 0 0.82 0.08 0 
0.84 0.08 0 0.86 0.08 0 0.88 0.08 0 
0.9 0.08 0 0.92 0.08 0 0.94 0.08 0 
0.96 0.08 0 0.98 0.08 0 1 0.08 0 
0 0.1 0 0.02 0.1 0 0.04 0.1 0 
0.06 0.1 0 0.08 0.1 0 0.1 0.1 0 
0.12 0.1 0 0.14 0.1 0 0.16 0.1 0 
0.18 0.1 0 0.2 0.1 0 0.22 0.1 0 
0.24 0.1 0 0.26 0.1 0 0.28 0.1 0 
0.3 0.1 0 0.32 0.1 0 0.34 0.1 0 
0.36 0.1 0 0.38 0.1 0 0.4 0.1 0 
0.42 0.1 0 0.44 0.1 0 0.46 0.1 0 
0.48 0.1 0 0.5 0.1 0 0.52 0.1 0 
0.54 0.1 0 0.56 0.1 0 0.58 0.1 0 
0.6 0.1 0 0.62 0.1 0 0.64 0.1 0 
0.66 0.1 0 0.68 0.1 0 0.7 0.1 0 
0.72 0.1 0 0.74 0.1 0 0.76 0.1 0 
0.78 0.1 0 0.8 0.1 0 0.82 0.1 0 
0.84 0.1 0 0.86 0.1 0 0.88 0.1 0 
0.9 0.1 0 0.92 0.1 0 0.94 0.1 0 
0.96 0.1 0 0.98 0.1 0 1 0.1 0 
0 0.12 0 0.02 0.12 0 0.04 0.12 0 
0.06 0.12 0 0.08 0.12 0 0.1 0.12 0 
0.12 0.12 0 0.14 0.12 0 0.16 0.12 0 
0.18 0.12 0 0.2 0.12 0 0.22 0.12 0 
0.24 0.12 0 0.26 0.12 0 0.28 0.12 0 
0.3 0.12 0 0.32 0.12 0 0.34 0.12 0 
0.36 0.12 0 0.38 0.12 0 0.4 0.12 0 
0.42 0.12 0 0.44 0.12 0 0.46 0.12 0 
0.48 0.12 0 0.5 0.12 0 0.52 0.12 0 
0.54 0.12 0 0.56 0.12 0 0.58 0.12 0 
0.6 0.12 0 0.62 0.12 0 0.64 0.12 0 
0.66 0.12 0 0.68 0.12 0 0.7 0.12 0 
0.72 0.12 0 0.74 0.12 0 0.76 0.12 0 
0.78 0.12 0 0.8 0.12 0 0.82 0.12 0 
0.84 0.12 0 0.86 0.12 0 0.88 0.12 0 
0.9 0.12 0 0.92 0.12 0 0.94 0.12 0 
0.96 0.12 0 0.98 0.12 0 1 0.12 0 
0 0.14 0 0.02 0.14 0 0.04 0.14 0 
0.06 0.14 0 0.08 0.14 0 0.1 0.14 0 
0.12 0.14 0 0.14 0.14 0 0.16 0.14 0 
0.18 0.14 0 0.2 0.14 0 0.22 0.14 0 
0.24 0.14 0 0.26 0.14 0 0.28 0.14 0 
0.3 0.14 0 0.32 0.14 0 0.34 0.14 0 
0.36 0.14 0 0.38 0.14 0 0.4 0.14 0 
0.42 0.14 0 0.44 0.14 0 0.46 0.14 0 
0.48 0.14 0 0.5 0.14 0 0.52 0.14 0 
0.54 0.14 0 0.56 0.14 0 0.58 0.14 0 
0.6 0.14 0 0.62 0.14 0 0.64 0.14 0 
0.66 0.14 0 0.68 0.14 0 0.7 0.14 0 
0.72 0.14 0 0.74 0.14 0 0.76 0.14 0 
0.78 0.14 0 0.8 0.14 0 0.82 0.14 0 
0.84 0.14 0 0.86 0.14 0 0.88 0.14 0 
0.9 0.14 0 0.92 0.14 0 0.94 0.14 0 
0.96 0.14 0 0.98 0.14 0 1 0.14 0 
0 0.16 0 0.02 0.16 0 0.04 0.16 0 
0.06 0.16 0 0.08 0.16 0 0.1 0.16 0 
0.12 0.16 0 0.14 0.16 0 0.16 0.16 0 
0.18 0.16 0 0.2 0.16 0 0.22 0.16 0 
0.24 0.16 0 0.26 0.16 0 0.28 0.16 0 
0.3 0.16 0 0.32 0.16 0 0.34 0.16 0 
0.36 0.16 0 0.38 0.16 0 0.4 0.16 0 
0.42 0.16 0 0.44 0.16 0 0.46 0.16 0 
0.48 0.16 0 0.5 0.16 0 0.52 0.16 0 
0.54 0.16 0 0.56 0.16 0 0.58 0.16 0 
0.6 0.16 0 0.62 0.16 0 0.64 0.16 0 
0.66 0.16 0 0.68 0.16 0 0.7 0.16 0 
0.72 0.16 0 0.74 0.16 0 0.76 0.16 0 
0.78 0.16 0 0.8 0.16 0 0.82 0.16 0 
0.84 0.16 0 0.86 0.16 0 0.88 0.16 0 
0.9 0.16 0 0.92 0.16 0 0.94 0.16 0 
0.96 0.16 0 0.98 0.16 0 1 0.16 0 
0 0.18 0 0.02 0.18 0 0.04 0.18 0 
0.06 0.18 0 0.08 0.18 0 0.1 0.18 0 
0.12 0.18 0 0.14 0.18 0 0.16 0.18 0 
0.18 0.18 0 0.2 0.18 0 0.22 0.18 0 
0.24 0.18 0 0.26 0.18 0 0.28 0.18 0 
0.3 0.18 0 0.32 0.18 0 0.34 0.18 0 
0.36 0.18 0 0.38 0.18 0 0.4 0.18 0 
0.42 0.18 0 0.44 0.18 0 0.46 0.18 0 
0.48 0.18 0 0.5 0.18 0 0.52 0.18 0 
0.54 0.18 0 0.56 0.18 0 0.58 0.18 0 
0.6 0.18 0 0.62 0.18 0 0.64 0.18 0 
0.66 0.18 0 0.68 0.18 0 0.7 0.18 0 
0.72 0.18 0 0.74 0.18 0 0.76 0.18 0 
0.78 0.18 0 0.8 0.18 0 0.82 0.18 0 
0.84 0.18 0 0.86 0.18 0 0.88 0.18 0 
0.9 0.18 0 0.92 0.18 0 0.94 0.18 0 
0.96 0.18 0 0.98 0.18 0 1 0.18 0 
0 0.2 0 0.02 0.2 0 0.04 0.2 0 
0.06 0.2 0 0.08 0.2 0 0.1 0.2 0 
0.12 0.2 0 0.14 0.2 0 0.16 0.2 0 
0.18 0.2 0 0.2 0.2 0 0.22 0.2 0 
0.24 0.2 0 0.26 0.2 0 0.28 0.2 0 
0.3 0.2 0 0.32 0.2 0 0.34 0.2 0 
0.36 0.2 0 0.38 0.2 0 0.4 0.2 0 
0.42 0.2 0 0.44 0.2 0 0.46 0.2 0 
0.48 0.2 0 0.5 0.2 0 0.52 0.2 0 
0.54 0.2 0 0.56 0.2 0 0.58 0.2 0 
0.6 0.2 0 0.62 0.2 0 0.64 0.2 0 
0.66 0.2 0 0.68 0.2 0 0.7 0.2 0 
0.72 0.2 0 0.74 0.2 0 0.76 0.2 0 
0.78 0.2 0 0.8 0.2 0 0.82 0.2 0 
0.84 0.2 0 0.86 0.2 0 0.88 0.2 0 
0.9 0.2 0 0.92 0.2 0 0.94 0.2 0 
0.96 0.2 0 0.98 0.2 0 1 0.2 0 
0 0.22 0 0.02 0.22 0 0.04 0.22 0 
0.06 0.22 0 0.08 0.22 0 0.1 0.22 0 
0.12 0.22 0 0.14 0.22 0 0.16 0.22 0 
0.18 0.22 0 0.2 0.22 0 0.22 0.22 0 
0.24 0.22 0 0.26 0.22 0 0.28 0.22 0 
0.3 0.22 0 0.32 0.22 0 0.34 0.22 0 
0.36 0.22 0 0.38 0.22 0 0.4 0.22 0 
0.42 0.22 0 0.44 0.22 0 0.46 0.22 0 
0.48 0.22 0 0.5 0.22 0 0.52 0.22 0 
0.54 0.22 0 0.56 0.22 0 0.58 0.22 0 
0.6 0.22 0 0.62 0.22 0 0.64 0.22 0 
0.66 0.22 0 0.68 0.22 0 0.7 0.22 0 
0.72 0.22 0 0.74 0.22 0 0.76 0.22 0 
0.78 0.22 0 0.8 0.22 0 0.82 0.22 0 
0.84 0.22 0 0.86 0.22 0 0.88 0.22 0 
0.9 0.22 0 0.92 0.22 0 0.94 0.22 0 
0.96 0.22 0 0.98 0.22 0 1 0.22 0 
0 0.24 0 0.02 0.24 0 0.04 0.24 0 
0.06 0.24 0 0.08 0.24 0 0.1 0.24 0 
0.12 0.24 0 0.14 0.24 0 0.16 0.24 0 
0.18 0.24 0 0.2 0.24 0 0.22 0.24 0 
0.24 0.24 0 0.26 0.24 0 0.28 0.24 0 
0.3 0.24 0 0.32 0.24 0 0.34 0.24 0 
0.36 0.24 0 0.38 0.24 0 0.4 0.24 0 
0.42 0.24 0 0.44 0.24 0 0.46 0.24 0 
0.48 0.24 0 0.5 0.24 0 0.52 0.24 0 
0.54 0.24 0 0.56 0.24 0 0.58 0.24 0 
0.6 0.24 0 0.62 0.24 0 0.64 0.24 0 
0.66 0.24 0 0.68 0.24 0 0.7 0.24 0 
0.72 0.24 0 0.74 0.24 0 0.76 0.24 0 
0.78 0.24 0 0.8 0.24 0 0.82 0.24 0 
0.84 0.24 0 0.86 0.24 0 0.88 0.24 0 
0.9 0.24 0 0.92 0.24 0 0.94 0.24 0 
0.96 0.24 0 0.98 0.24 0 1 0.24 0 
0 0.26 0 0.02 0.26 0 0.04 0.26 0 
0.06 0.26 0 0.08 0.26 0 0.1 0.26 0 
0.12 0.26 0 0.14 0.26 0 0.16 0.26 0 
0.18 0.26 0 0.2 0.26 0 0.22 0.26 0 
0.24 0.26 0 0.26 0.26 0 0.28 0.26 0 
0.3 0.26 0 0.32 0.26 0 0.34 0.26 0 
0.36 0.26 0 0.38 0.26 0 0.4 0.26 0 
0.42 0.26 0 0.44 0.26 0 0.46 0.26 0 
0.48 0.26 0 0.5 0.26 0 0.52 0.26 0 
0.54 0.26 0 0.56 0.26 0 0.58 0.26 0 
0.6 0.26 0 0.62 0.26 0 0.64 0.26 0 
0.66 0.26 0 0.68 0.26 0 0.7 0.26 0 
0.72 0.26 0 0.74 0.26 0 0.76 0.26 0 
0.78 0.26 0 0.8 0.26 0 0.82 0.26 0 
0.84 0.26 0 0.86 0.26 0 0.88 0.26 0 
0.9 0.26 0 0.92 0.26 0 0.94 0.26 0 
0.96 0.26 0 0.98 0.26 0 1 0.26 0 
0 0.28 0 0.02 0.28 0 0.04 0.28 0 
0.06 0.28 0 0.08 0.28 0 0.1 0.28 0 
0.12 0.28 0 0.14 0.28 0 0.16 0.28 0 
0.18 0.28 0 0.2 0.28 0 0.22 0.28 0 
0.24 0.28 0 0.26 0.28 0 0.28 0.28 0 
0.3 0.28 0 0.32 0.28 0 0.34 0.28 0 
0.36 0.28 0 0.38 0.28 0 0.4 0.28 0 
0.42 0.28 0 0.44 0.28 0 0.46 0.28 0 
0.48 0.28 0 0.5 0.28 0 0.52 0.28 0 
0.54 0.28 0 0.56 0.28 0 0.58 0.28 0 
0.6 0.28 0 0.62 0.28 0 0.64 0.28 0 
0.66 0.28 0 0.68 0.28 0 0.7 0.28 0 
0.72 0.28 0 0.74 0.28 0 0.76 0.28 0 
0.78 0.28 0 0.8 0.28 0 0.82 0.28 0 
0.84 0.28 0 0.86 0.28 0 0.88 0.28 0 
0.9 0.28 0 0.92 0.28 0 0.94 0.28 0 
0.96 0.28 0 0.98 0.28 0 1 0.28 0 
0 0.3 0 0.02 0.3 0 0.04 0.3 0 
0.06 0.3 0 0.08 0.3 0 0.1 0.3 0 
0.12 0.3 0 0.14 0.3 0 0.16 0.3 0 
0.18 0.3 0 0.2 0.3 0 0.22 0.3 0 
0.24 0.3 0 0.26 0.3 0 0.28 0.3 0 
0.3 0.3 0 0.32 0.3 0 0.34 0.3 0 
0.36 0.3 0 0.38 0.3 0 0.4 0.3 0 
0.42 0.3 0 0.44 0.3 0 0.46 0.3 0 
0.48 0.3 0 0.5 0.3 0 0.52 0.3 0 
0.54 0.3 0 0.56 0.3 0 0.58 0.3 0 
0.6 0.3 0 0.62 0.3 0 0.64 0.3 0 
0.66 0.3 0 0.68 0.3 0 0.7 0.3 0 
0.72 0.3 0 0.74 0.3 0 0.76 0.3 0 
0.78 0.3 0 0.8 0.3 0 0.82 0.3 0 
0.84 0.3 0 0.86 0.3 0 0.88 0.3 0 
0.9 0.3 0 0.92 0.3 0 0.94 0.3 0 
0.96 0.3 0 0.98 0.3 0 1 0.3 0 
0 0.32 0 0.02 0.32 0 0.04 0.32 0 
0.06 0.32 0 0.08 0.32 0 0.1 0.32 0 
0.12 0.32 0 0.14 0.32 0 0.16 0.32 0 
0.18 0.32 0 0.2 0.32 0 0.22 0.32 0 
0.24 0.32 0 0.26 0.32 0 0.28 0.32 0 
0.3 0.32 0 0.32 0.32 0 0.34 0.32 0 
0.36 0.32 0 0.38 0.32 0 0.4 0.32 0 
0.42 0.32 0 0.44 0.32 0 0.46 0.32 0 
0.48 0.32 0 0.5 0.32 0 0.52 0.32 0 
0.54 0.32 0 0.56 0.32 0 0.58 0.32 0 
[...]
CELL_DATA 2500
FIELD FieldData 2
pressure 1 2500 double
-0.0056378172915 -0.0056206329317 -0.0056445618194 -0.0057141838512 -0.0058196950153 -0.0059492918504 -0.0060961139043 -0.0062590050011 -0.0064409135344 
-0.0066457308009 -0.0068776784516 -0.007138973542 -0.007428407531 -0.0077453103536 -0.0080846783554 -0.0084391778497 -0.0087986026922 -0.0091498178617 
-0.009477157274 -0.0097629569411 -0.0099881311137 -0.01013282603 -0.01017722933 -0.010102536048 -0.009892039264 -0.0095323248212 -0.0090145404816 
-0.008335724498 -0.0075002546737 -0.0065215090013 -0.0054273473176 -0.0042776543562 -0.0031159049325 -0.0019978696593 -0.00098673522893 -0.00014807867967 
0.00045707186905 0.00078115486414 0.00080022354199 0.00052380476172 3.0750863617e-05 -0.00059702664519 -0.0012598305257 -0.0018613960461 -0.0023365233033 
-0.0026714833439 -0.0028786461126 -0.0029790585473 -0.002994603334 -0.0029533950914 -0.0056451362366 -0.0056341717107 -0.0056641758189 -0.0057317381566 
-0.0058281669699 -0.0059449782139 -0.0060783567624 -0.006228021102 -0.0063972464493 -0.0065881848761 -0.0068059639819 -0.0070538472018 -0.0073306622087 
-0.0076356368737 -0.0079649690092 -0.0083120620752 -0.008667466048 -0.0090188922274 -0.0093513636553 -0.0096474849302 -0.0098879504635 -0.010052316285 
-0.010119968685 -0.010071240151 -0.0098886129969 -0.0095579276839 -0.0090695447263 -0.0084194396196 -0.0076101985219 -0.0066522833034 -0.0056109927728 
-0.0044988608261 -0.0033686314476 -0.0022779342932 -0.0012897445814 -0.00046863386934 0.00012577665115 0.00044765575644 0.00047539838167 0.00022231183958 
-0.00025561880779 -0.00082568747157 -0.0014306163266 -0.0019735094656 -0.0023924024724 -0.0026798127274 -0.0028538532161 -0.0029391852245 -0.0029561979247 
-0.0029139350507 -0.0056242628641 -0.0056172978286 -0.0056518298463 -0.0057202525149 -0.0058128390292 -0.0059212829688 -0.0060444162129 -0.0061797996549 
-0.0063347747787 -0.0065139254619 -0.006721563577 -0.0069617901893 -0.0072359162221 -0.0075433230078 -0.0078807723349 -0.0082421440282 -0.0086182788956 
-0.0089968330531 -0.0093622625245 -0.0096961349261 -0.0099777968579 -0.010185334247 -0.010296733939 -0.010291136128 -0.010150057354 -0.0098585268057 
-0.0094060870259 -0.0087874605388 -0.0080020798675 -0.0071010323668 -0.0060869425672 -0.0049974080417 -0.003882049422 -0.0027980521594 -0.0018080528969 
-0.0009762194045 -0.00036197826047 -1.1442702303e-05 5.2916797538e-05 -0.00015701592776 -0.00058684731139 -0.0011392807722 -0.0017024069396 -0.0022121799569 
-0.0025897929923 -0.0028234223013 -0.0029517604654 -0.0030050160256 -0.0030053550749 -0.0029534003795 -0.0055631120827 -0.0055636684034 -0.0056056173287 
-0.005679234842 -0.0057729586869 -0.0058779147069 -0.0059927258553 -0.0061193803536 -0.0062664432854 -0.0064415682711 -0.0066514993127 -0.0069013358609 
-0.0071935277105 -0.0075277980611 -0.007900937522 -0.0083064823561 -0.0087343612808 -0.0091706981494 -0.0095979827669 -0.0099956364913 -0.010340954409 
-0.010610305203 -0.010780426402 -0.010829675555 -0.010739192828 -0.010493964972 -0.01008377792 -0.0095041635526 -0.0087646920022 -0.0078990065951 
-0.0069103365699 -0.0058376558782 -0.0047285791068 -0.0036385327259 -0.0026286281246 -0.0017618853772 -0.0010973698817 -0.00068215278862 -0.0005415624071 
-0.00066916929225 -0.0010195773867 -0.0015092963244 -0.0020319934447 -0.0025029023179 -0.0028614480519 -0.0030587348188 -0.0031471194915 -0.0031676646288 
-0.0031491181005 -0.0030953889553 -0.0054540703189 -0.0054675622102 -0.0055221151207 -0.0056051153194 -0.005703630857 -0.005810445669 -0.0059247885626 
-0.0060535817912 -0.0062075488911 -0.0063974306549 -0.0066319839799 -0.006917206783 -0.0072558930228 -0.0076474702195 -0.0080877399998 -0.0085684942336 
-0.009077256955 -0.009597390266 -0.010108605749 -0.010587888543 -0.01101070114 -0.011352284893 -0.011588911997 -0.011699038954 -0.011664356458 
-0.011470718593 -0.011108961624 -0.010575488878 -0.0098919726171 -0.0090573432855 -0.0080940538103 -0.0070366100857 -0.0059290964882 -0.0048236748068 
-0.0037785090247 -0.00285435279 -0.0021093062738 -0.001591585666 -0.0013307060096 -0.0013284095726 -0.0015520439151 -0.0019344965996 -0.0023846433631 
-0.0028082656093 -0.0031228955084 -0.0033196178109 -0.0033888741844 -0.0033930041324 -0.0033665143777 -0.0033210787296 -0.0052936747295 -0.0053267564056 
-0.0053979723268 -0.0054929292038 -0.0056032697965 -0.0057197828574 -0.0058470854032 -0.005995958981 -0.0061796299175 -0.0064105266536 -0.0066983140474 
-0.0070490969671 -0.0074650971829 -0.0079443420302 -0.0084803495133 -0.0090619302298 -0.0096733227541 -0.010294712363 -0.010903160078 -0.011473794679 
-0.011981086727 -0.012400068497 -0.012707447405 -0.012882599228 -0.012908457885 -0.012772384643 -0.0124670728 -0.011991538973 -0.011358213253 
-0.010563028573 -0.0096292690929 -0.0085884740826 -0.0074806399176 -0.0063535059194 -0.0052609972102 -0.004260444262 -0.0034081938736 -0.0027534404642 
-0.0023305762876 -0.0021511274142 -0.0021973707455 -0.0024205805258 -0.002746578559 -0.0030890892668 -0.00336929349 -0.0035456260843 -0.0036285035949 
-0.0036437113634 -0.0036270149174 -0.0035982465395 -0.0050858829017 -0.0051449701317 -0.0052355414395 -0.0053487938124 -0.0054755072204 -0.0056146298993 
-0.0057740908873 -0.0059669889156 -0.0062076514237 -0.0065087565144 -0.0068796552622 -0.0073255606738 -0.00784699878 -0.0084394358775 -0.0090931257855 
-0.0097933303297 -0.010520911051 -0.011253299664 -0.011965692305 -0.012632289054 -0.013227470046 -0.01372684839 -0.014108178377 -0.014352161019 
-0.014443244325 -0.014370464008 -0.014128379102 -0.013718253959 -0.013137793253 -0.012387680003 -0.011488384447 -0.010467590224 -0.0093604291638 
-0.008209220004 -0.0070625011795 -0.0059730354455 -0.0049944464143 -0.004176298734 -0.0035577849477 -0.0031607609545 -0.0029836047311 -0.0029979876527 
-0.0031507018532 -0.0033720795551 -0.003592098585 -0.0037639360889 -0.003864897411 -0.0039004453006 -0.0039099844943 -0.0039033959071 -0.0048483229649 
-0.004938578914 -0.005049740345 -0.0051832380141 -0.0053375022071 -0.0055163941825 -0.0057301402741 -0.0059924266773 -0.0063171250922 -0.0067159116378 
-0.0071967494128 -0.0077628207221 -0.0084118717618 -0.0091359488298 -0.009921640546 -0.010750748003 -0.011601326437 -0.012448911336 -0.013267741441 
-0.014031910373 -0.014716360168 -0.015297711111 -0.015754994583 -0.016070367851 -0.016229824066 -0.01622394306 -0.016048733254 -0.015706611434 
-0.015183406568 -0.014483344778 -0.013623797076 -0.012628088512 -0.011525872136 -0.010353246862 -0.0091523814601 -0.0079703505539 -0.006856883231 
-0.0058608132252 -0.0050252495587 -0.0043818825752 -0.003945348054 -0.0037090449259 -0.0036440239895 -0.0037024667292 -0.0038268101784 -0.0039636635024 
-0.0040759558511 -0.0041640453481 -0.0042117902742 -0.004229993993 -0.0046108748514 -0.004731658419 -0.0048637649116 -0.0050246065434 -0.0052196644419 
-0.0054562225683 -0.0057452057333 -0.0060994225949 -0.0065311506653 -0.0070501072909 -0.0076617774139 -0.0083662583477 -0.0091576740877 -0.010024277752 
-0.010949112346 -0.011911100215 -0.012886312308 -0.013849207267 -0.014773787611 -0.015634556788 -0.016407303768 -0.017069802963 -0.017602468562 
-0.017988962492 -0.018216801904 -0.018277973454 -0.018169577385 -0.017894540609 -0.017430778606 -0.016784542143 -0.015970048538 -0.015006053801 
-0.013916390543 -0.012730405615 -0.011483113108 -0.010214836929 -0.0089700841216 -0.0077954186126 -0.0067362294715 -0.0058325204518 -0.0051141629519 
-0.0045963687317 -0.004276363046 -0.0041323256339 -0.0041256729615 -0.0042078122543 -0.0043325028212 -0.004458753599 -0.0045435926838 -0.0045868464319 
-0.0044117413925 -0.0045580038116 -0.0047148139322 -0.0049111810537 -0.0051594304487 -0.0054687595508 -0.0058494944819 -0.0063126602626 -0.0068682057673 
-0.0075229599753 -0.0082789475223 -0.0091323332605 -0.010073207666 -0.011086090036 -0.012150978745 -0.013244628774 -0.014341820586 -0.015416542647 
-0.016442944528 -0.017396120955 -0.018252824551 -0.018992099298 -0.019595845563 -0.020049341378 -0.020341684298 -0.020466184574 -0.020420765744 
-0.020208432067 -0.019803682138 -0.019213464114 -0.018448929106 -0.017524324204 -0.016457621525 -0.015271177582 -0.013992322083 -0.012653717057 
-0.011293284259 -0.0099534800103 -0.0086797255139 -0.0075178846905 -0.0065108146092 -0.0056941548239 -0.0050916255544 -0.0047101898989 -0.0045356861371 
-0.0045304195332 -0.0046362269943 -0.004785000522 -0.0049188529251 -0.0049900527715 -0.00429321794 -0.0044621404174 -0.0046450338347 -0.0048832956788 
-0.0051936776635 -0.0055858772415 -0.0060688675831 -0.0066514199393 -0.0073404575644 -0.0081390812735 -0.0090450540602 -0.010050172952 -0.011140478451 
-0.012297148345 -0.013497709456 -0.014717306745 -0.015929911715 -0.017109297659 -0.018229863677 -0.01926739645 -0.020199732255 -0.021007342807 
-0.021673834069 -0.022186282392 -0.022535453257 -0.022715953784 -0.02272638435 -0.022569573251 -0.022220876872 -0.021687085464 -0.020976522288 
-0.020099215472 -0.01906752688 -0.017896923761 -0.016606859281 -0.015221693436 -0.013771533157 -0.012292807487 -0.01082834272 -0.0094266648683 
-0.0081402258009 -0.0070221843914 -0.0061212758021 -0.0054742523194 -0.0050956997899 -0.0049666021965 -0.0050275593596 -0.0051887111231 -0.0053632954598 
-0.0054616105561 -0.0042953509672 -0.0044819443348 -0.0046917809739 -0.0049755131786 -0.0053524815823 -0.0058321123794 -0.0064217657577 -0.0071275233761 
-0.0079526355494 -0.008895783743 -0.00995006911 -0.01110287043 -0.012336494271 -0.013629236186 -0.014956589635 -0.016292452799 -0.017610130934 
-0.018883221127 -0.020086448351 -0.021196403818 -0.02219220502 -0.023056033648 -0.023773443435 -0.024333491424 -0.024728725671 -0.02495509006 
-0.025011842765 -0.024901544682 -0.024603862779 -0.024125113866 -0.023471127699 -0.022648203374 -0.021663641627 -0.020526486894 -0.01924853157 
-0.017845604867 -0.016339110953 -0.014757704001 -0.013138887873 -0.011530192614 -0.0099893824774 -0.008582875443 -0.0073812100288 -0.0064501088295 
-0.0058359277429 -0.0055462028723 -0.005531935755 -0.0056893627098 -0.0058931915335 -0.0060187540168 -0.0044463689778 -0.0046459131084 -0.004882166166 
-0.0052118020569 -0.0056555148504 -0.0062222299197 -0.0069174885981 -0.0077442353969 -0.0087015122889 -0.009783272964 -0.010977933632 -0.012268760524 
-0.013634732723 -0.015051627271 -0.016493184641 -0.017932118755 -0.019341057697 -0.020693468644 -0.021964505538 -0.023131781175 -0.024176000713 
-0.02508131103 -0.025835428457 -0.02642955896 -0.026858151834 -0.027118591688 -0.027210874743 -0.027137361311 -0.026884286029 -0.026457530994 
-0.025860850111 -0.025097479343 -0.024170471692 -0.023083289168 -0.021840754858 -0.020450468467 -0.018924757709 -0.017283170804 -0.015555383656 
-0.01378418026 -0.012027835831 -0.010360746051 -0.0088705144137 -0.0076491086118 -0.0067756493003 -0.0062901891168 -0.0061641446709 -0.0062874501381 
-0.0065003787859 -0.0066701951268 -0.0047622720447 -0.0049699713617 -0.0052304620352 -0.0056036651039 -0.0061109075123 -0.0067604482379 -0.007555691135 
-0.0084960621773 -0.0095762010526 -0.010785383038 -0.012107697726 -0.013522725665 -0.015006466852 -0.016532436995 -0.018072650331 -0.019598597477 
-0.021082257573 -0.022497068302 -0.023818835545 -0.025026508352 -0.026102623425 -0.027033500616 -0.02780918503 -0.028423148426 -0.028871866174 
-0.029154295327 -0.029271311759 -0.02922516411 -0.029009711983 -0.028630499622 -0.02808967316 -0.027388195149 -0.026525919308 -0.025501918177 
-0.024315203101 -0.022966013445 -0.021457866832 -0.019800518122 -0.01801384946 -0.01613246046 -0.014210277992 -0.012323819219 -0.010571827783 
-0.0090680132077 -0.0079231195708 -0.007213937319 -0.0069431842018 -0.0070108588323 -0.00723956218 -0.007440534655 -0.0052458681174 -0.0054567764144 
-0.0057379705766 -0.0061504839757 -0.0067157080137 -0.0074408456296 -0.0083268414207 -0.0093694876355 -0.010559146583 -0.011880855606 -0.013314882967 
-0.014837510369 -0.016422060143 -0.018039825016 -0.019661061955 -0.021256074139 -0.022796301769 -0.02425538275 -0.025610100917 -0.026840966619 
-0.027932537714 -0.028873454717 -0.029656166223 -0.030276493192 -0.030733028446 -0.031026425484 -0.031158611635 -0.031131337471 -0.030946779145 
-0.03060961768 -0.030120956888 -0.029480384044 -0.02868574925 -0.027733167789 -0.026617370286 -0.025332640252 -0.023874639844 -0.02224344298 
-0.020448005547 -0.018512028057 -0.016480650374 -0.014426577478 -0.012453027077 -0.010689461622 -0.0092749766873 -0.008324873685 -0.007881549048 
-0.0078678009943 -0.0080929430333 -0.008329361858 -0.0058877015059 -0.0060969340145 -0.0063945794539 -0.0068411169568 -0.0074572237268 -0.0082485809403 
-0.0092135298159 -0.010344372332 -0.011627692564 -0.013044893115 -0.014572878842 -0.016185028128 -0.017852079704 -0.019543121745 -0.021226726397 
-0.022872146854 -0.024450534199 -0.025936073848 -0.027306738628 -0.02854478115 -0.029636916771 -0.030574132185 -0.031351317725 -0.031966657429 
-0.032420857209 -0.032716302804 -0.032856211797 -0.032840767716 -0.032681239777 -0.032379984612 -0.031937848332 -0.031353947985 -0.030625327702 
-0.029746645736 -0.028710089537 -0.027505794899 -0.026123170199 -0.024553611286 -0.022795060722 -0.020858654212 -0.018777164846 -0.01661398177 
-0.014469885432 -0.01248298695 -0.010815384402 -0.0096197468136 -0.0089833824036 -0.008863616762 -0.0090682013175 -0.0093370310117 -0.006668307799 
-0.0068714141716 -0.0071811898898 -0.0076559795019 -0.008314884734 -0.0091617235793 -0.01019227721 -0.011395834019 -0.012755869387 -0.014250683193 
-0.015854315505 -0.01753742807 -0.019268271189 -0.021013864803 -0.022741279584 -0.024419008537 -0.026018289945 -0.027514069447 -0.028885694417 
-0.030117294677 -0.031197733138 -0.032120374387 -0.032882509575 -0.033484566121 -0.033929200543 -0.034220314315 -0.034362112563 -0.034355418338 
-0.034215171294 -0.033943303799 -0.033540678917 -0.033006622185 -0.032338376174 -0.031530506995 -0.030574386936 -0.029458027565 -0.028166704652 
-0.026684971801 -0.025000778605 -0.023112297617 -0.021037574628 -0.018826086894 -0.016569568204 -0.014407073661 -0.012516648288 -0.011084419295 
-0.010244625127 -0.0099988105074 -0.010166442941 -0.010459800267 -0.0075611347911 -0.0077544587327 -0.008072272122 -0.008569317138 -0.0092624278725 
-0.010153355965 -0.01123564769 -0.012496230821 -0.01391604554 -0.01547085356 -0.017132128951 -0.018867989806 -0.020644416746 -0.022426603456 
-0.024180467798 -0.025874151561 -0.027479218977 -0.028971569715 -0.030332065607 -0.031546687741 -0.032606501975 -0.033507183807 -0.03424826517 
-0.034832197289 -0.035263266437 -0.035546562739 -0.035687037917 -0.035686848658 -0.0355614076 -0.03531275653 -0.034942133659 -0.03444954205 
-0.033833144902 -0.033088490602 -0.032207659336 -0.031178545313 -0.029984667972 -0.028606198373 -0.027023129114 -0.025221595376 -0.023204021337 
-0.0210027173 -0.018694625488 -0.016412060811 -0.014340835108 -0.012694278293 -0.011652438554 -0.011268134149 -0.011386654715 -0.011702738348 
-0.0085355785265 -0.0087163342847 -0.0090382811172 -0.0095515175106 -0.010270106412 -0.011193769043 -0.012314328753 -0.013616894923 -0.015080433307 
-0.016678563863 -0.018380424592 -0.020151886796 -0.021956968632 -0.023759451896 -0.025524547362 -0.027220336014 -0.028818907317 -0.030297266816 
-0.03163776315 -0.032828306286 -0.033862089149 -0.034736940418 -0.035454407429 -0.0360185743 -0.036434934471 -0.036709343591 -0.036847234136 
-0.036852282194 -0.036738212712 -0.036507377016 -0.036161540339 -0.035701606317 -0.035127058509 -0.034435141068 -0.033619808907 -0.032670552725 
-0.031571439146 -0.030301002857 -0.028834059575 -0.027146862476 -0.025226901359 -0.023087723682 -0.020787103153 -0.018443579699 -0.016242083365 
-0.014415065142 -0.013184160209 -0.012656767201 -0.012715434306 -0.013044892464 -0.0095596650752 -0.0097256513014 -0.010047863823 -0.010571226817 
-0.011306796961 -0.012252510166 -0.013398866345 -0.014729624013 -0.01622220738 -0.017848349625 -0.019575192038 -0.021366731654 -0.023185490671 
-0.024994329029 -0.026758110146 -0.028445062205 -0.030027971305 -0.031484931166 -0.032799857949 -0.033962525851 -0.034968113364 -0.035816398362 
-0.036510528198 -0.037055794801 -0.037458411261 -0.037724612296 -0.037860018023 -0.037869695238 -0.037764487839 -0.0375470338 -0.037219605551 
-0.036784023774 -0.036241221015 -0.035590485252 -0.034828337484 -0.033947092071 -0.032933268602 -0.031766387548 -0.030419245188 -0.028861334396 
-0.027067392097 -0.02503240913 -0.022792353083 -0.020446172238 -0.018169483032 -0.016204578598 -0.01480769834 -0.014140336454 -0.014131307846 
-0.014465535858 -0.010602140365 -0.010751245266 -0.011069675164 -0.011597189772 -0.012341868405 -0.013300011807 -0.014461061946 -0.015807786222 
-0.017316305182 -0.018956788088 -0.020694801895 -0.022492958269 -0.024312822873 -0.026116768298 -0.027869541371 -0.029539713439 -0.031100776568 
-0.032531976309 -0.033818762894 -0.034952637445 -0.035930587606 -0.036753928296 -0.037427024979 -0.037955881694 -0.038347036246 -0.038606751355 
-0.038740527041 -0.038754595754 -0.038656439135 -0.038448873599 -0.038134573551 -0.037716164554 -0.037195954893 -0.03657528881 -0.03585349137 
-0.035026333605 -0.034084068417 -0.033009380949 -0.031776137707 -0.030350720883 -0.028698494171 -0.026797820526 -0.024662157751 -0.022366734005 
-0.020070319116 -0.018015355009 -0.016483642059 -0.015686865517 -0.015606089539 -0.01593741488 -0.01163415835 -0.011763357176 -0.012073716356 
-0.012599770901 -0.013346591778 -0.014308820932 -0.015474993429 -0.016827038709 -0.018340014587 -0.019982954136 -0.021720333332 -0.023513955585 
-0.025324935285 -0.027115428276 -0.028850289817 -0.030498493631 -0.032034275318 -0.033438044146 -0.034696638945 -0.035803133594 -0.036755931726 
-0.037557538565 -0.038213055662 -0.038728842707 -0.039111446254 -0.039366834222 -0.039500145374 -0.039518380412 -0.039425894626 -0.039225536446 
-0.03892020868 -0.038513183855 -0.038007944859 -0.037407673812 -0.036714337449 -0.035927258266 -0.035041070974 -0.0340431086 -0.032910901188 
-0.031611378826 -0.030104619723 -0.028355714918 -0.02635683682 -0.024157373736 -0.02189323338 -0.019797714248 -0.018167916479 -0.017258923145 
-0.017106591084 -0.017428736231 -0.012631211717 -0.012733448137 -0.013032278596 -0.013552058015 -0.014295159158 -0.015254466645 -0.016417623862 
-0.017765809516 -0.01927337613 -0.020908685023 -0.022635700678 -0.024415984538 -0.026210520754 -0.027981510516 -0.029694040748 -0.031317512128 
-0.032826967942 -0.034203837216 -0.035436202104 -0.036518348398 -0.037449745544 -0.03823363294 -0.038875518082 -0.039381849965 -0.0397588967 
-0.040012195071 -0.040146188577 -0.04016793582 -0.040080060081 -0.039884871731 -0.039585358401 -0.039185278106 -0.038689028361 -0.038101272936 
-0.037426239218 -0.036666537678 -0.035821231105 -0.034883032008 -0.033834945339 -0.032647583806 -0.031279965264 -0.029688236249 -0.027846222057 
-0.025777464538 -0.023590953733 -0.021502692712 -0.019814486366 -0.018815828199 -0.01859643944 -0.018904895105 -0.013565629285 -0.013644455626 
-0.013921162064 -0.014430764403 -0.01516542896 -0.016115967278 -0.01726918015 -0.018605625941 -0.020099387883 -0.021718701948 -0.023427625038 
-0.025187854063 -0.026960547708 -0.028708139991 -0.030395988601 -0.031994042417 -0.033478045938 -0.03483029938 -0.036039816834 -0.037101709507 
-0.038016088109 -0.038786581545 -0.039418853819 -0.039919159867 -0.04029342486 -0.040546599847 -0.040682670697 -0.040705730873 -0.040622185357 
-0.040430698901 -0.04013460826 -0.039738086661 -0.039246227607 -0.038664824058 -0.037999911998 -0.037256878701 -0.036438866157 -0.035544017424 
-0.03456168947 -0.033468460053 -0.032226118765 -0.030786603985 -0.029109609207 -0.027194781483 -0.025122322709 -0.023084518234 -0.021377789851 
-0.020315685036 -0.020037687579 -0.020329864113 -0.014413547554 -0.014479712091 -0.014729189612 -0.01521667341 -0.015939458107 -0.016876099536 