# vtk DataFile Version 4.1
vtk output
ASCII
DATASET STRUCTURED_GRID
DIMENSIONS 51 51 1
POINTS 2601 float
0 0 0 0.02 0 0 0.04 0 0 
0.06 0 0 0.08 0 0 0.1 0 0 
0.12 0 0 0.14 0 0 0.16 0 0 
0.18 0 0 0.2 0 0 0.22 0 0 
0.24 0 0 0.26 0 0 0.28 0 0 
0.3 0 0 0.32 0 0 0.34 0 0 
0.36 0 0 0.38 0 0 0.4 0 0 
0.42 0 0 0.44 0 0 0.46 0 0 
0.48 0 0 0.5 0 0 0.52 0 0 
0.54 0 0 0.56 0 0 0.58 0 0 
0.6 0 0 0.62 0 0 0.64 0 0 
0.66 0 0 0.68 0 0 0.7 0 0 
0.72 0 0 0.74 0 0 0.76 0 0 
0.78 0 0 0.8 0 0 0.82 0 0 
0.84 0 0 0.86 0 0 0.88 0 0 
0.9 0 0 0.92 0 0 0.94 0 0 
0.96 0 0 0.98 0 0 1 0 0 
0 0.02 0 0.02 0.02 0 0.04 0.02 0 
0.06 0.02 0 0.08 0.02 0 0.1 0.02 0 
0.12 0.02 0 0.14 0.02 0 0.16 0.02 0 
0.18 0.02 0 0.2 0.02 0 0.22 0.02 0 
0.24 0.02 0 0.26 0.02 0 0.28 0.02 0 
0.3 0.02 0 0.32 0.02 0 0.34 0.02 0 
0.36 0.02 0 0.38 0.02 0 0.4 0.02 0 
0.42 0.02 0 0.44 0.02 0 0.46 0.02 0 
0.48 0.02 0 0.5 0.02 0 0.52 0.02 0 
0.54 0.02 0 0.56 0.02 0 0.58 0.02 0 
0.6 0.02 0 0.62 0.02 0 0.64 0.02 0 
0.66 0.02 0 0.68 0.02 0 0.7 0.02 0 
0.72 0.02 0 0.74 0.02 0 0.76 0.02 0 
0.78 0.02 0 0.8 0.02 0 0.82 0.02 0 
0.84 0.02 0 0.86 0.02 0 0.88 0.02 0 
0.9 0.02 0 0.92 0.02 0 0.94 0.02 0 
0.96 0.02 0 0.98 0.02 0 1 0.02 0 
0 0.04 0 0.02 0.04 0 0.04 0.04 0 
0.06 0.04 0 0.08 0.04 0 0.1 0.04 0 
0.12 0.04 0 0.14 0.04 0 0.16 0.04 0 
0.18 0.04 0 0.2 0.04 0 0.22 0.04 0 
0.24 0.04 0 0.26 0.04 0 0.28 0.04 0 
0.3 0.04 0 0.32 0.04 0 0.34 0.04 0 
0.36 0.04 0 0.38 0.04 0 0.4 0.04 0 
0.42 0.04 0 0.44 0.04 0 0.46 0.04 0 
0.48 0.04 0 0.5 0.04 0 0.52 0.04 0 
0.54 0.04 0 0.56 0.04 0 0.58 0.04 0 
0.6 0.04 0 0.62 0.04 0 0.64 0.04 0 
0.66 0.04 0 0.68 0.04 0 0.7 0.04 0 
0.72 0.04 0 0.74 0.04 0 0.76 0.04 0 
0.78 0.04 0 0.8 0.04 0 0.82 0.04 0 
0.84 0.04 0 0.86 0.04 0 0.88 0.04 0 
0.9 0.04 0 0.92 0.04 0 0.94 0.04 0 
0.96 0.04 0 0.98 0.04 0 1 0.04 0 
0 0.06 0 0.02 0.06 0 0.04 0.06 0 
0.06 0.06 0 0.08 0.06 0 0.1 0.06 0 
0.12 0.06 0 0.14 0.06 0 0.16 0.06 0 
0.18 0.06 0 0.2 0.06 0 0.22 0.06 0 
0.24 0.06 0 0.26 0.06 0 0.28 0.06 0 
0.3 0.06 0 0.32 0.06 0 0.34 0.06 0 
0.36 0.06 0 0.38 0.06 0 0.4 0.06 0 
0.42 0.06 0 0.44 0.06 0 0.46 0.06 0 
0.48 0.06 0 0.5 0.06 0 0.52 0.06 0 
0.54 0.06 0 0.56 0.06 0 0.58 0.06 0 
0.6 0.06 0 0.62 0.06 0 0.64 0.06 0 
0.66 0.06 0 0.68 0.06 0 0.7 0.06 0 
0.72 0.06 0 0.74 0.06 0 0.76 0.06 0 
0.78 0.06 0 0.8 0.06 0 0.82 0.06 0 
0.84 0.06 0 0.86 0.06 0 0.88 0.06 0 
0.9 0.06 0 0.92 0.06 0 0.94 0.06 0 
0.96 0.06 0 0.98 0.06 0 1 0.06 0 
0 0.08 0 0.02 0.08 0 0.04 0.08 0 
0.06 0.08 0 0.08 0.08 0 0.1 0.08 0 
0.12 0.08 0 0.14 0.08 0 0.16 0.08 0 
0.18 0.08 0 0.2 0.08 0 0.22 0.08 0 
0.24 0.08 0 0.26 0.08 0 0.28 0.08 0 
0.3 0.08 0 0.32 0.08 0 0.34 0.08 0 
0.36 0.08 0 0.38 0.08 0 0.4 0.08 0 
0.42 0.08 0 0.44 0.08 0 0.46 0.08 0 
0.48 0.08 0 0.5 0.08 0 0.52 0.08 0 
0.54 0.08 0 0.56 0.08 0 0.58 0.08 0 
0.6 0.08 0 0.62 0.08 0 0.64 0.08 0 
0.66 0.08 0 0.68 0.08 0 0.7 0.08 0 
0.72 0.08 0 0.74 0.08 0 0.76 0.08 0 
0.78 0.08 0 0.8 0.08 0 0.82 0.08 0 
0.84 0.08 0 0.86 0.08 0 0.88 0.08 0 
0.9 0.08 0 0.92 0.08 0 0.94 0.08 0 
0.96 0.08 0 0.98 0.08 0 1 0.08 0 
0 0.1 0 0.02 0.1 0 0.04 0.1 0 
0.06 0.1 0 0.08 0.1 0 0.1 0.1 0 
0.12 0.1 0 0.14 0.1 0 0.16 0.1 0 
0.18 0.1 0 0.2 0.1 0 0.22 0.1 0 
0.24 0.1 0 0.26 0.1 0 0.28 0.1 0 
0.3 0.1 0 0.32 0.1 0 0.34 0.1 0 
0.36 0.1 0 0.38 0.1 0 0.4 0.1 0 
0.42 0.1 0 0.44 0.1 0 0.46 0.1 0 
0.48 0.1 0 0.5 0.1 0 0.52 0.1 0 
0.54 0.1 0 0.56 0.1 0 0.58 0.1 0 
0.6 0.1 0 0.62 0.1 0 0.64 0.1 0 
0.66 0.1 0 0.68 0.1 0 0.7 0.1 0 
0.72 0.1 0 0.74 0.1 0 0.76 0.1 0 
0.78 0.1 0 0.8 0.1 0 0.82 0.1 0 
0.84 0.1 0 0.86 0.1 0 0.88 0.1 0 
0.9 0.1 0 0.92 0.1 0 0.94 0.1 0 
0.96 0.1 0 0.98 0.1 0 1 0.1 0 
0 0.12 0 0.02 0.12 0 0.04 0.12 0 
0.06 0.12 0 0.08 0.12 0 0.1 0.12 0 
0.12 0.12 0 0.14 0.12 0 0.16 0.12 0 
0.18 0.12 0 0.2 0.12 0 0.22 0.12 0 
0.24 0.12 0 0.26 0.12 0 0.28 0.12 0 
0.3 0.12 0 0.32 0.12 0 0.34 0.12 0 
0.36 0.12 0 0.38 0.12 0 0.4 0.12 0 
0.42 0.12 0 0.44 0.12 0 0.46 0.12 0 
0.48 0.12 0 0.5 0.12 0 0.52 0.12 0 
0.54 0.12 0 0.56 0.12 0 0.58 0.12 0 
0.6 0.12 0 0.62 0.12 0 0.64 0.12 0 
0.66 0.12 0 0.68 0.12 0 0.7 0.12 0 
0.72 0.12 0 0.74 0.12 0 0.76 0.12 0 
0.78 0.12 0 0.8 0.12 0 0.82 0.12 0 
0.84 0.12 0 0.86 0.12 0 0.88 0.12 0 
0.9 0.12 0 0.92 0.12 0 0.94 0.12 0 
0.96 0.12 0 0.98 0.12 0 1 0.12 0 
0 0.14 0 0.02 0.14 0 0.04 0.14 0 
0.06 0.14 0 0.08 0.14 0 0.1 0.14 0 
0.12 0.14 0 0.14 0.14 0 0.16 0.14 0 
0.18 0.14 0 0.2 0.14 0 0.22 0.14 0 
0.24 0.14 0 0.26 0.14 0 0.28 0.14 0 
0.3 0.14 0 0.32 0.14 0 0.34 0.14 0 
0.36 0.14 0 0.38 0.14 0 0.4 0.14 0 
0.42 0.14 0 0.44 0.14 0 0.46 0.14 0 
0.48 0.14 0 0.5 0.14 0 0.52 0.14 0 
0.54 0.14 0 0.56 0.14 0 0.58 0.14 0 
0.6 0.14 0 0.62 0.14 0 0.64 0.14 0 
0.66 0.14 0 0.68 0.14 0 0.7 0.14 0 
0.72 0.14 0 0.74 0.14 0 0.76 0.14 0 
0.78 0.14 0 0.8 0.14 0 0.82 0.14 0 
0.84 0.14 0 0.86 0.14 0 0.88 0.14 0 
0.9 0.14 0 0.92 0.14 0 0.94 0.14 0 
0.96 0.14 0 0.98 0.14 0 1 0.14 0 
0 0.16 0 0.02 0.16 0 0.04 0.16 0 
0.06 0.16 0 0.08 0.16 0 0.1 0.16 0 
0.12 0.16 0 0.14 0.16 0 0.16 0.16 0 
0.18 0.16 0 0.2 0.16 0 0.22 0.16 0 
0.24 0.16 0 0.26 0.16 0 0.28 0.16 0 
0.3 0.16 0 0.32 0.16 0 0.34 0.16 0 
0.36 0.16 0 0.38 0.16 0 0.4 0.16 0 
0.42 0.16 0 0.44 0.16 0 0.46 0.16 0 
0.48 0.16 0 0.5 0.16 0 0.52 0.16 0 
0.54 0.16 0 0.56 0.16 0 0.58 0.16 0 
0.6 0.16 0 0.62 0.16 0 0.64 0.16 0 
0.66 0.16 0 0.68 0.16 0 0.7 0.16 0 
0.72 0.16 0 0.74 0.16 0 0.76 0.16 0 
0.78 0.16 0 0.8 0.16 0 0.82 0.16 0 
0.84 0.16 0 0.86 0.16 0 0.88 0.16 0 
0.9 0.16 0 0.92 0.16 0 0.94 0.16 0 
0.96 0.16 0 0.98 0.16 0 1 0.16 0 
0 0.18 0 0.02 0.18 0 0.04 0.18 0 
0.06 0.18 0 0.08 0.18 0 0.1 0.18 0 
0.12 0.18 0 0.14 0.18 0 0.16 0.18 0 
0.18 0.18 0 0.2 0.18 0 0.22 0.18 0 
0.24 0.18 0 0.26 0.18 0 0.28 0.18 0 
0.3 0.18 0 0.32 0.18 0 0.34 0.18 0 
0.36 0.18 0 0.38 0.18 0 0.4 0.18 0 
0.42 0.18 0 0.44 0.18 0 0.46 0.18 0 
0.48 0.18 0 0.5 0.18 0 0.52 0.18 0 
0.54 0.18 0 0.56 0.18 0 0.58 0.18 0 
0.6 0.18 0 0.62 0.18 0 0.64 0.18 0 
0.66 0.18 0 0.68 0.18 0 0.7 0.18 0 
0.72 0.18 0 0.74 0.18 0 0.76 0.18 0 
0.78 0.18 0 0.8 0.18 0 0.82 0.18 0 
0.84 0.18 0 0.86 0.18 0 0.88 0.18 0 
0.9 0.18 0 0.92 0.18 0 0.94 0.18 0 
0.96 0.18 0 0.98 0.18 0 1 0.18 0 
0 0.2 0 0.02 0.2 0 0.04 0.2 0 
0.06 0.2 0 0.08 0.2 0 0.1 0.2 0 
0.12 0.2 0 0.14 0.2 0 0.16 0.2 0 
0.18 0.2 0 0.2 0.2 0 0.22 0.2 0 
0.24 0.2 0 0.26 0.2 0 0.28 0.2 0 
0.3 0.2 0 0.32 0.2 0 0.34 0.2 0 
0.36 0.2 0 0.38 0.2 0 0.4 0.2 0 
0.42 0.2 0 0.44 0.2 0 0.46 0.2 0 
0.48 0.2 0 0.5 0.2 0 0.52 0.2 0 
0.54 0.2 0 0.56 0.2 0 0.58 0.2 0 
0.6 0.2 0 0.62 0.2 0 0.64 0.2 0 
0.66 0.2 0 0.68 0.2 0 0.7 0.2 0 
0.72 0.2 0 0.74 0.2 0 0.76 0.2 0 
0.78 0.2 0 0.8 0.2 0 0.82 0.2 0 
0.84 0.2 0 0.86 0.2 0 0.88 0.2 0 
0.9 0.2 0 0.92 0.2 0 0.94 0.2 0 
0.96 0.2 0 0.98 0.2 0 1 0.2 0 
0 0.22 0 0.02 0.22 0 0.04 0.22 0 
0.06 0.22 0 0.08 0.22 0 0.1 0.22 0 
0.12 0.22 0 0.14 0.22 0 0.16 0.22 0 
0.18 0.22 0 0.2 0.22 0 0.22 0.22 0 
0.24 0.22 0 0.26 0.22 0 0.28 0.22 0 
0.3 0.22 0 0.32 0.22 0 0.34 0.22 0 
0.36 0.22 0 0.38 0.22 0 0.4 0.22 0 
0.42 0.22 0 0.44 0.22 0 0.46 0.22 0 
0.48 0.22 0 0.5 0.22 0 0.52 0.22 0 
0.54 0.22 0 0.56 0.22 0 0.58 0.22 0 
0.6 0.22 0 0.62 0.22 0 0.64 0.22 0 
0.66 0.22 0 0.68 0.22 0 0.7 0.22 0 
0.72 0.22 0 0.74 0.22 0 0.76 0.22 0 
0.78 0.22 0 0.8 0.22 0 0.82 0.22 0 
0.84 0.22 0 0.86 0.22 0 0.88 0.22 0 
0.9 0.22 0 0.92 0.22 0 0.94 0.22 0 
0.96 0.22 0 0.98 0.22 0 1 0.22 0 
0 0.24 0 0.02 0.24 0 0.04 0.24 0 
0.06 0.24 0 0.08 0.24 0 0.1 0.24 0 
0.12 0.24 0 0.14 0.24 0 0.16 0.24 0 
0.18 0.24 0 0.2 0.24 0 0.22 0.24 0 
0.24 0.24 0 0.26 0.24 0 0.28 0.24 0 
0.3 0.24 0 0.32 0.24 0 0.34 0.24 0 
0.36 0.24 0 0.38 0.24 0 0.4 0.24 0 
0.42 0.24 0 0.44 0.24 0 0.46 0.24 0 
0.48 0.24 0 0.5 0.24 0 0.52 0.24 0 
0.54 0.24 0 0.56 0.24 0 0.58 0.24 0 
0.6 0.24 0 0.62 0.24 0 0.64 0.24 0 
0.66 0.24 0 0.68 0.24 0 0.7 0.24 0 
0.72 0.24 0 0.74 0.24 0 0.76 0.24 0 
0.78 0.24 0 0.8 0.24 0 0.82 0.24 0 
0.84 0.24 0 0.86 0.24 0 0.88 0.24 0 
0.9 0.24 0 0.92 0.24 0 0.94 0.24 0 
0.96 0.24 0 0.98 0.24 0 1 0.24 0 
0 0.26 0 0.02 0.26 0 0.04 0.26 0 
0.06 0.26 0 0.08 0.26 0 0.1 0.26 0 
0.12 0.26 0 0.14 0.26 0 0.16 0.26 0 
0.18 0.26 0 0.2 0.26 0 0.22 0.26 0 
0.24 0.26 0 0.26 0.26 0 0.28 0.26 0 
0.3 0.26 0 0.32 0.26 0 0.34 0.26 0 
0.36 0.26 0 0.38 0.26 0 0.4 0.26 0 
0.42 0.26 0 0.44 0.26 0 0.46 0.26 0 
0.48 0.26 0 0.5 0.26 0 0.52 0.26 0 
0.54 0.26 0 0.56 0.26 0 0.58 0.26 0 
0.6 0.26 0 0.62 0.26 0 0.64 0.26 0 
0.66 0.26 0 0.68 0.26 0 0.7 0.26 0 
0.72 0.26 0 0.74 0.26 0 0.76 0.26 0 
0.78 0.26 0 0.8 0.26 0 0.82 0.26 0 
0.84 0.26 0 0.86 0.26 0 0.88 0.26 0 
0.9 0.26 0 0.92 0.26 0 0.94 0.26 0 
0.96 0.26 0 0.98 0.26 0 1 0.26 0 
0 0.28 0 0.02 0.28 0 0.04 0.28 0 
0.06 0.28 0 0.08 0.28 0 0.1 0.28 0 
0.12 0.28 0 0.14 0.28 0 0.16 0.28 0 
0.18 0.28 0 0.2 0.28 0 0.22 0.28 0 
0.24 0.28 0 0.26 0.28 0 0.28 0.28 0 
0.3 0.28 0 0.32 0.28 0 0.34 0.28 0 
0.36 0.28 0 0.38 0.28 0 0.4 0.28 0 
0.42 0.28 0 0.44 0.28 0 0.46 0.28 0 
0.48 0.28 0 0.5 0.28 0 0.52 0.28 0 
0.54 0.28 0 0.56 0.28 0 0.58 0.28 0 
0.6 0.28 0 0.62 0.28 0 0.64 0.28 0 
0.66 0.28 0 0.68 0.28 0 0.7 0.28 0 
0.72 0.28 0 0.74 0.28 0 0.76 0.28 0 
0.78 0.28 0 0.8 0.28 0 0.82 0.28 0 
0.84 0.28 0 0.86 0.28 0 0.88 0.28 0 
0.9 0.28 0 0.92 0.28 0 0.94 0.28 0 
0.96 0.28 0 0.98 0.28 0 1 0.28 0 
0 0.3 0 0.02 0.3 0 0.04 0.3 0 
0.06 0.3 0 0.08 0.3 0 0.1 0.3 0 
0.12 0.3 0 0.14 0.3 0 0.16 0.3 0 
0.18 0.3 0 0.2 0.3 0 0.22 0.3 0 
0.24 0.3 0 0.26 0.3 0 0.28 0.3 0 
0.3 0.3 0 0.32 0.3 0 0.34 0.3 0 
0.36 0.3 0 0.38 0.3 0 0.4 0.3 0 
0.42 0.3 0 0.44 0.3 0 0.46 0.3 0 
0.48 0.3 0 0.5 0.3 0 0.52 0.3 0 
0.54 0.3 0 0.56 0.3 0 0.58 0.3 0 
0.6 0.3 0 0.62 0.3 0 0.64 0.3 0 
0.66 0.3 0 0.68 0.3 0 0.7 0.3 0 
0.72 0.3 0 0.74 0.3 0 0.76 0.3 0 
0.78 0.3 0 0.8 0.3 0 0.82 0.3 0 
0.84 0.3 0 0.86 0.3 0 0.88 0.3 0 
0.9 0.3 0 0.92 0.3 0 0.94 0.3 0 
0.96 0.3 0 0.98 0.3 0 1 0.3 0 
0 0.32 0 0.02 0.32 0 0.04 0.32 0 
0.06 0.32 0 0.08 0.32 0 0.1 0.32 0 
0.12 0.32 0 0.14 0.32 0 0.16 0.32 0 
0.18 0.32 0 0.2 0.32 0 0.22 0.32 0 
0.24 0.32 0 0.26 0.32 0 0.28 0.32 0 
0.3 0.32 0 0.32 0.32 0 0.34 0.32 0 
0.36 0.32 0 0.38 0.32 0 0.4 0.32 0 
0.42 0.32 0 0.44 0.32 0 0.46 0.32 0 
0.48 0.32 0 0.5 0.32 0 0.52 0.32 0 
0.54 0.32 0 0.56 0.32 0 0.58 0.32 0 
[...]
CELL_DATA 2500
FIELD FieldData 2
pressure 1 2500 double
-0.0056581645522 -0.0056493528509 -0.0056722219479 -0.0057338450679 -0.0058297981671 -0.0059526146859 -0.006097368957 -0.0062618507222 -0.0064465134909 
-0.0066531593904 -0.0068848370868 -0.0071436182182 -0.0074290674837 -0.0077412742917 -0.0080757713446 -0.0084256839166 -0.0087809859427 -0.0091285421196 
-0.0094526368903 -0.0097355771068 -0.00995823156 -0.010100781298 -0.010143594558 -0.010068092723 -0.0098577932413 -0.0094995060166 -0.0089845371145 
-0.0083099534848 -0.0074800408554 -0.0065080002976 -0.0054211287638 -0.0042789398694 -0.0031245349442 -0.0020132900781 -0.0010079788 -0.00017374929104 
0.00042878536672 0.00075240749169 0.00077336452786 0.00050112457141 1.3438476798e-05 -0.00060822532314 -0.0012651391214 -0.0018618656792 -0.0023336742665 
-0.0026666778094 -0.0028729259679 -0.0029731183292 -0.002988864768 -0.0029480586975 -0.0056731160653 -0.0056602870345 -0.0056831310596 -0.0057429317374 
-0.0058342791779 -0.005949977392 -0.006084983421 -0.0062368008527 -0.0064072976696 -0.0065975821172 -0.0068131522272 -0.0070576054873 -0.0073303922794 
-0.0076312226552 -0.0079565471059 -0.0082998056113 -0.0086515241941 -0.0089993828382 -0.0093283673213 -0.0096210716918 -0.0098583318408 -0.010019950433 
-0.010085556337 -0.010035753361 -0.0098532888027 -0.0095241512971 -0.009038724799 -0.008392922955 -0.0075891844843 -0.006637748833 -0.0056031757106 
-0.0044981082648 -0.0033748832391 -0.0022907420662 -0.0013082404109 -0.00049150452938 0.000100276511 0.00042162571389 0.0004511145767 0.00020192344569 
-0.00027052152249 -0.00083519328297 -0.0014346023531 -0.0019731200702 -0.0023891292625 -0.0026749851602 -0.0028483967591 -0.0029336376284 -0.002950840015 
-0.0029089868403 -0.0056511911267 -0.0056363724842 -0.0056637240935 -0.0057283827279 -0.0058210849451 -0.0059317641265 -0.0060569891331 -0.0061930422372 
-0.0063470891445 -0.0065237173617 -0.0067282068827 -0.0069648817917 -0.0072354281684 -0.007539337752 -0.0078732451558 -0.0082309532169 -0.0086032224068 
-0.0089776601707 -0.0093387745558 -0.0096683542275 -0.009946051575 -0.010150258162 -0.010259291326 -0.010252568451 -0.010111737493 -0.0098218461502 
-0.0093723843568 -0.008757959698 -0.0079778514768 -0.0070823055674 -0.0060747057239 -0.0049919809179 -0.0038834729654 -0.0028059937204 -0.0018217406691 
-0.00099441308715 -0.00038299108453 -3.3237776647e-05 3.2537718082e-05 -0.00017392139303 -0.0005987761509 -0.0011457366515 -0.0017038782195 -0.0022094388897 
-0.0025845918633 -0.0028172709501 -0.0029455054604 -0.0029990410488 -0.0029997622937 -0.0029482968967 -0.0055832344858 -0.0055761671711 -0.0056148533974 
-0.0056895393934 -0.0057864159607 -0.0058937059071 -0.006009267259 -0.0061345029613 -0.0062788435063 -0.0064507431787 -0.0066572906895 -0.006903898643 
-0.0071929415425 -0.0075238732003 -0.0078933574999 -0.0082947490549 -0.0087178983729 -0.0091490551439 -0.0095709874486 -0.0099634638068 -0.010304169325 
-0.010569873075 -0.010737581753 -0.010785763934 -0.0106955751 -0.01045193165 -0.010044503588 -0.0094687702632 -0.0087336264041 -0.0078734083032 
-0.0068909411373 -0.0058249444172 -0.0047227134816 -0.0036392715141 -0.0026352746278 -0.0017732784426 -0.0011119232377 -0.00069795463028 -0.00055655261433 
-0.00068141032288 -0.0010275968706 -0.0015124206518 -0.0020305106135 -0.0024976750928 -0.002853752652 -0.0030505572203 -0.0031393185571 -0.0031605324419 
-0.0031425959191 -0.0030893758246 -0.005467162354 -0.0054772605654 -0.0055333907509 -0.0056201718854 -0.0057218231351 -0.0058295558772 -0.0059424563768 
-0.0060682692448 -0.0062188362433 -0.0064052445201 -0.0066366400675 -0.0069188578265 -0.007254288877 -0.0076421655107 -0.0080779945303 -0.0085534647101 
-0.0090562648068 -0.009570055846 -0.010074957357 -0.010548424074 -0.010966355952 -0.011304265251 -0.01153853391 -0.011647617496 -0.011613105956 
-0.01142073081 -0.011061267604 -0.010531098247 -0.0098517536189 -0.0090223595502 -0.0080651712144 -0.0070144108607 -0.0059138038338 -0.0048151036209 
-0.0037760441018 -0.0028569552957 -0.0021155574077 -0.0015997768691 -0.0013389924833 -0.0013350296064 -0.0015555870058 -0.0019341578929 -0.0023803681809 
-0.0028007211858 -0.0031134193946 -0.0033096315134 -0.0033794486341 -0.0033844195088 -0.0033586366262 -0.0033136452871 -0.0053037965575 -0.0053385464149 
-0.005414123708 -0.0055127400151 -0.0056244508327 -0.0057396750572 -0.0058639068076 -0.0060091395498 -0.0061890738897 -0.0064166184399 -0.006701285274 
-0.0070487257427 -0.0074608942086 -0.0079353926494 -0.0084656124707 -0.009040540203 -0.0096446960837 -0.010258737383 -0.010860265797 -0.011424855474 
-0.011927254018 -0.012342618249 -0.012647632957 -0.012821552593 -0.01284721304 -0.01271195979 -0.012408515997 -0.011935929582 -0.011306690366 
-0.010516728033 -0.0095890866129 -0.008554996697 -0.0074541072394 -0.0063337880858 -0.0052475907656 -0.0042524876122 -0.0034045049625 -0.0027525882652 
-0.0023309952521 -0.0021512822285 -0.0021959574018 -0.0024167239418 -0.002739976763 -0.0030800688288 -0.0033587540382 -0.0035347341404 -0.0036179282469 
-0.0036338102855 -0.0036177129954 -0.0035892522486 -0.005098798543 -0.0051625272762 -0.0052573109499 -0.0053723513755 -0.0054979253497 -0.0056339349979 
-0.0057895161634 -0.005978283035 -0.0062151562459 -0.0065127487961 -0.006879969172 -0.0073217432231 -0.0078380606751 -0.0084242111077 -0.0090706031655 
-0.0097627568627 -0.010482055958 -0.011206505664 -0.011911752469 -0.012572292399 -0.01316262986 -0.013658331967 -0.014037040909 -0.014279398534 
-0.014369873452 -0.014297569513 -0.014057108586 -0.013649742029 -0.013073526235 -0.012328717491 -0.011435552637 -0.010421434375 -0.0093211943246 
-0.0081768506596 -0.007036647492 -0.0059530642154 -0.004979463855 -0.0041651943848 -0.0035493077247 -0.0031536327711 -0.0029766633066 -0.0029903369326 
-0.0031418343881 -0.0033619362471 -0.0035810155695 -0.0037523968123 -0.0038535549443 -0.0038895273131 -0.0038993959937 -0.0038929415623 -0.0048685206884 
-0.004963207009 -0.0050763830518 -0.0052091034343 -0.0053602798915 -0.0055350721447 -0.0057442459501 -0.0060021235622 -0.0063226622731 -0.0067171539004 
-0.0071933079733 -0.0077537233468 -0.0083959136338 -0.0091120290222 -0.009888881691 -0.010708829831 -0.011550506039 -0.012389891245 -0.013201546564 
-0.013959674712 -0.014639150064 -0.015216512443 -0.015670778706 -0.015984160105 -0.01614276341 -0.016137273768 -0.015963723675 -0.015624428107 
-0.015105595949 -0.014410873012 -0.01355739685 -0.012568256783 -0.0114728807 -0.010307149336 -0.0091130137183 -0.0079373310933 -0.00682961747 
-0.0058385138985 -0.0050069815444 -0.004366635248 -0.0039321315814 -0.0036969917073 -0.0036324731268 -0.0036910076187 -0.0038152639504 -0.0039520048374 
-0.0040642216454 -0.0041523176896 -0.0042000600761 -0.0042182241143 -0.0046399098413 -0.0047627445727 -0.0048943495455 -0.005052194814 -0.0052429933559 
-0.0054745911089 -0.0057585074793 -0.0061077710611 -0.0065343595279 -0.0070478234093 -0.007653083228 -0.0083499680669 -0.0091326665249 -0.0099896090128 
-0.010904396709 -0.011856527226 -0.012822510536 -0.013777135471 -0.014694490639 -0.015549004579 -0.016316423366 -0.016974541873 -0.017503868568 
-0.017888229959 -0.018115272043 -0.018177013329 -0.01807046536 -0.017798367021 -0.017339067093 -0.016698122107 -0.015889564096 -0.014931988284 
-0.013849076512 -0.012670024175 -0.011429686334 -0.010168215166 -0.0089299401971 -0.0077612561634 -0.0067074094698 -0.0058083059187 -0.0050937712915 
-0.0045790210904 -0.00426131897 -0.0041188972008 -0.004113226814 -0.0041957862511 -0.0043204502524 -0.0044462475722 -0.0045307295352 -0.0045737909334 
-0.0044486620046 -0.0045943581864 -0.0047483253411 -0.0049404079642 -0.0051834700907 -0.0054872090804 -0.0058622526619 -0.0063193767857 -0.0068684699409 
-0.0075158824354 -0.0082633608825 -0.0091071339994 -0.010037437412 -0.011039326593 -0.012093366029 -0.013176743114 -0.01426456385 -0.015330875739 
-0.016349751908 -0.017296280721 -0.018147263042 -0.018881882388 -0.019482254704 -0.019933795015 -0.02022563285 -0.020350997195 -0.020307633907 
-0.02009832858 -0.019698042646 -0.019113005435 -0.018354256441 -0.017435943063 -0.016375938905 -0.015196490574 -0.013924798863 -0.012593383776 
-0.011240023473 -0.0099070416235 -0.0086397467655 -0.0074839086242 -0.0064822993878 -0.0056704687056 -0.0050720260186 -0.0046937985543 -0.0045214857485 
-0.0045173215386 -0.0046232401372 -0.0047714144461 -0.0049046567939 -0.0049755354386 -0.0043356455912 -0.0045017396605 -0.0046805713121 -0.0049137393171 
-0.0052183263732 -0.005604367496 -0.0060806076797 -0.006655815707 -0.0073365561306 -0.0081256709487 -0.0090210297208 -0.010014569509 -0.011092852784 
-0.012237622636 -0.01342682157 -0.014635911717 -0.015838908107 -0.01700949733 -0.018122100437 -0.019152583505 -0.020078968564 -0.020881984442 
-0.021545372794 -0.022056244766 -0.022405286861 -0.022586925912 -0.02259956113 -0.022445819974 -0.022101535732 -0.021572823461 -0.020867944945 
-0.01999686893 -0.018971878432 -0.017808338112 -0.016525587001 -0.015147872663 -0.013705203588 -0.012233929567 -0.010776808019 -0.0093822896528 
-0.0081027217885 -0.0069911059985 -0.0060959507735 -0.0054537141795 -0.0050786641801 -0.0049515611935 -0.0050130666649 -0.0051737878536 -0.005347403857 
-0.0054452532228 -0.0043401224206 -0.0045228526724 -0.0047281126685 -0.005006355924 -0.0053771721676 -0.0058497786256 -0.0064315314136 -0.007128255025 
-0.0079429633138 -0.0088745178169 -0.0099161890623 -0.011055885322 -0.012276503652 -0.013556746803 -0.014872414709 -0.016197445741 -0.017505041633 
-0.018768846322 -0.019963695042 -0.021066405403 -0.022056389623 -0.022915959915 -0.023630709673 -0.024189612981 -0.024585025758 -0.024812706368 
-0.024871741319 -0.024764558737 -0.024471250017 -0.023997536614 -0.023349219427 -0.022532535352 -0.021554694469 -0.020424641001 -0.019154070925 
-0.017758738472 -0.016260001239 -0.014686484688 -0.013075663405 -0.011475013904 -0.0099421956308 -0.0085434412061 -0.0073489956255 -0.0064241737485 
-0.0058148576233 -0.0055281832266 -0.0055150657839 -0.0056721670776 -0.0058749406512 -0.0059999956891 -0.004490652951 -0.0046861707952 -0.0049177913399 
-0.0052419063088 -0.005678940469 -0.0062377598306 -0.0069237210532 -0.0077395275614 -0.0086844586639 -0.0097526955951 -0.010933218868 -0.012209937527 
-0.013562256441 -0.014966264194 -0.016395746141 -0.017823293813 -0.019221609537 -0.020564300628 -0.02182677659 -0.022986988246 -0.024025765789 
-0.024927299288 -0.025679214802 -0.026272509495 -0.026701461978 -0.026963299831 -0.027057923382 -0.026987639454 -0.026738951624 -0.026317267918 
-0.02572629767 -0.024969199768 -0.024048932988 -0.022968863323 -0.021733744137 -0.020351138481 -0.018833359675 -0.017199953157 -0.015480591256 
-0.013718033948 -0.011970481102 -0.010312157837 -0.0088303579335 -0.0076165773829 -0.006749339874 -0.0062681216333 -0.0061440669983 -0.0062674725141 
-0.0064795616364 -0.006648537745 -0.0048037000965 -0.0050076727543 -0.0052638494101 -0.005631414668 -0.0061314601716 -0.0067720937009 -0.0075564472039 
-0.0084841824485 -0.0095502211647 -0.010744448839 -0.012051673853 -0.013451954139 -0.014921633491 -0.016434294728 -0.017961819263 -0.019475793744 
-0.020948370523 -0.022353268366 -0.023666681836 -0.024867678028 -0.025938843072 -0.026866402698 -0.027640174929 -0.028253474082 -0.028702614068 
-0.028986464145 -0.029105900486 -0.029063242567 -0.028852235674 -0.028478140339 -0.027943068359 -0.027247897033 -0.026392382111 -0.025375525761 
-0.02419629104 -0.022854882707 -0.021354802355 -0.019705809028 -0.017927803385 -0.016055400587 -0.014142503575 -0.012265510127 -0.010522883501 
-0.00902784352 -0.0078904521477 -0.0071867604911 -0.0069189900919 -0.0069872970929 -0.0072151883414 -0.0074152135366 -0.0052824464449 -0.0054902693315 
-0.0057674310269 -0.0061741462351 -0.0067315759768 -0.0074465962637 -0.0083203139329 -0.0093488290116 -0.010523127779 -0.01182904757 -0.013247416553 
-0.014754923353 -0.016324997969 -0.017928817527 -0.019536744915 -0.021119296753 -0.022648221718 -0.024097604301 -0.025444343666 -0.026669011813 
-0.027756076802 -0.028693932516 -0.029474888936 -0.030094596139 -0.030551555569 -0.030846394394 -0.030981014167 -0.030957824948 -0.030777637995 
-0.030445584026 -0.029962694329 -0.029328459484 -0.028540659188 -0.027595337726 -0.026487156928 -0.025210347835 -0.023760540232 -0.022137805636 
-0.020351135289 -0.018424288824 -0.016402444798 -0.014358256333 -0.012394717095 -0.010640826007 -0.0092349607262 -0.0082915550071 -0.0078522790826 
-0.0078398247265 -0.0080643496479 -0.0082996533946 -0.0059179063238 -0.0061246861731 -0.0064184546713 -0.0068589730512 -0.0074664703317 -0.0082466421355 
-0.0091981240253 -0.010313792863 -0.011581086057 -0.012982055773 -0.014494102853 -0.016090771322 -0.017742736056 -0.019419193161 -0.021088979766 
-0.02272168848 -0.024288976514 -0.025765163707 -0.027128300902 -0.028360563384 -0.029448402235 -0.03038269445 -0.03115815372 -0.031772886948 
-0.032227580411 -0.032524514811 -0.032666697291 -0.032656204465 -0.032500702192 -0.032204475957 -0.031768125285 -0.031190659926 -0.030469025227 
-0.029597788779 -0.02856905308 -0.027372868197 -0.025998582492 -0.024437583794 -0.02268786156 -0.020760635046 -0.018688758102 -0.016535635171 
-0.014401907997 -0.012425297775 -0.010767204155 -0.009579347717 -0.0089481006332 -0.0088303897715 -0.0090346529533 -0.0093022352241 -0.0066909711919 
-0.0068920588571 -0.0071980314674 -0.0076663381821 -0.0083158523786 -0.0091506202349 -0.010166888419 -0.011354791678 -0.012698523884 -0.01417696246 
-0.015764394107 -0.017431490605 -0.019146616103 -0.020877109004 -0.02259042672 -0.024255619204 -0.025844115737 -0.027330955309 -0.028695433751 
-0.029921405797 -0.030997657441 -0.031917369875 -0.03267777843 -0.03327931775 -0.033724563299 -0.034017374016 -0.034161896364 -0.0341590299 
-0.034023126778 -0.033756389725 -0.033359665486 -0.032832191673 -0.032171125921 -0.031370935165 -0.030422872088 -0.029314846912 -0.028032068643 
-0.026559062578 -0.024883797333 -0.023004516617 -0.020939372066 -0.018737924908 -0.016491872574 -0.014339991433 -0.012459701419 -0.011036155113 
-0.010202485137 -0.0099595378742 -0.010127229106 -0.010419309457 -0.0075753271877 -0.0077669452643 -0.0080807813944 -0.0085707930178 -0.0092538780359 
-0.010132115546 -0.011199807314 -0.012444633981 -0.013848150213 -0.015386458823 -0.017031116896 -0.01875037763 -0.02051057988 -0.022277375302 
-0.024017276884 -0.025698716478 -0.027293364601 -0.02877711568 -0.030130560242 -0.031339629423 -0.032395205286 -0.033292924164 -0.034032338012 
-0.034615800292 -0.035047564258 -0.035332609493 -0.03547580845 -0.035479153547 -0.035358101613 -0.03511468599 -0.034750086576 -0.034264242275 
-0.033655219359 -0.032918450397 -0.032045917545 -0.031025418687 -0.029840376162 -0.028470884084 -0.02689690428 -0.025104609414 -0.023096530572 
-0.020905116121 -0.018607381856 -0.01633550131 -0.01427477438 -0.012637583794 -0.011602751067 -0.01122211472 -0.011341113805 -0.011655926781 
-0.0085406801296 -0.008719821111 -0.0090374387319 -0.0095431841515 -0.010251288146 -0.011162062362 -0.012268070312 -0.01355502056 -0.015002295983 
-0.016583655447 -0.018268398006 -0.020022778543 -0.021811352214 -0.023598531295 -0.025349944858 -0.027033806768 -0.028622261299 -0.030092073068 
-0.031425556373 -0.032610460187 -0.033639947899 -0.034511883266 -0.035227698802 -0.03579145976 -0.036208516722 -0.036484633563 -0.036625206739 
-0.03663373262 -0.03652410459 -0.036298594427 -0.035958900633 -0.035505833555 -0.034938786201 -0.034254936429 -0.033448152768 -0.032507816054 
-0.031417869423 -0.030156721099 -0.02869909202 -0.027021215741 -0.025110670645 -0.022981179982 -0.020690683636 -0.018357715225 -0.016166835166 
-0.014349627849 -0.013126443811 -0.01260346194 -0.01266305163 -0.012991307403 -0.0095553094955 -0.009719548464 -0.010037096059 -0.010552627251 
-0.011277573546 -0.012210546574 -0.013342600834 -0.014657929775 -0.01613413612 -0.017743115048 -0.019452404488 -0.02122659687 -0.023028893248 
-0.024822701315 -0.026573081219 -0.028248374623 -0.02982119492 -0.031269604097 -0.032577412474 -0.03373436471 -0.034735698943 -0.035581068733 
-0.036273615943 -0.036818461957 -0.037221736162 -0.037489638641 -0.037627732665 -0.037640947462 -0.037540258175 -0.037328218575 -0.037006996936 
-0.036578335507 -0.036043128312 -0.035400606235 -0.034647214826 -0.033775163481 -0.032770823278 -0.031613545369 -0.030275974729 -0.028727529603 
-0.026942991367 -0.024917515938 -0.022687293299 -0.020351393796 -0.018085227331 -0.016130349866 -0.014741723576 -0.014079437828 -0.014071801753 
-0.014404974075 -0.010588160843 -0.010735330803 -0.011048860169 -0.011568427551 -0.012302661171 -0.013248387222 -0.014395434094 -0.015726769341 
-0.017218637658 -0.018841589428 -0.020561806459 -0.022342635653 -0.024146303225 -0.025935482824 -0.027675090295 -0.029333627349 -0.030884553787 
-0.03230708997 -0.033586658223 -0.034714853265 -0.035688542977 -0.036509041651 -0.037180528628 -0.037708936593 -0.038100781313 -0.038362254602 
-0.038498823334 -0.038516505555 -0.038422958908 -0.038220870921 -0.03791280852 -0.037501361502 -0.036988798871 -0.036376428277 -0.035663518345 
-0.034845736117 -0.033913189304 -0.032848381512 -0.031624994075 -0.030209264298 -0.028566514787 -0.026675227895 -0.024549108628 -0.022263613213 
-0.019977473927 -0.017932562145 -0.016409467553 -0.015618348312 -0.015539452859 -0.015869928831 -0.011610617151 -0.011737817076 -0.012043212829 
-0.012561483034 -0.013298215642 -0.014248386869 -0.015400726872 -0.016737228888 -0.018233260647 -0.019858449921 -0.021578039971 -0.02335458906 
-0.025149637999 -0.026925576815 -0.02864730686 -0.030283787138 -0.031809314444 -0.033204293611 -0.034455691607 -0.035556492578 -0.036505090318 
-0.037303811639 -0.03795768443 -0.03847306679 -0.038856439273 -0.039113788378 -0.039250065949 -0.039271876064 -0.03918412958 -0.038989334878 
-0.038690310014 -0.038290270979 -0.037792678507 -0.037200702542 -0.036516268703 -0.03573863084 -0.034862303529 -0.033874449846 -0.032752381209 
-0.03146280547 -0.029965673345 -0.028226118259 -0.026236542568 -0.024046641156 -0.021792444717 -0.019706864342 -0.018085903639 -0.017183059067 
-0.017033096577 -0.017354641946 -0.012598460349 -0.012698911036 -0.012992922923 -0.013505276994 -0.014238672574 -0.015186184539 -0.016335472454 
-0.017667890399 -0.019158324666 -0.020775882119 -0.022485350645 -0.024248839913 -0.026027650692 -0.027784136003 -0.029483420062 -0.031095038218 
-0.032594088066 -0.033962156776 -0.035187301698 -0.036263781655 -0.037190920156 -0.037971857113 -0.038612118009 -0.039118088132 -0.039496107776 
-0.039751594094 -0.0398890046 -0.03991369996 -0.039831024343 -0.039641613012 -0.039348478332 -0.03895537466 -0.03846671534 -0.037887163513 
-0.037220953148 -0.036470665732 -0.035635282401 -0.03470735275 -0.033669641427 -0.032492496545 -0.031134713068 -0.029552383015 -0.027719518773 
-0.025660005523 -0.023483083413 -0.021404553036 -0.019725276842 -0.018733165779 -0.018516621432 -0.018824757621 -0.013524561872 -0.013601722173 
-0.013874188825 -0.014376757531 -0.015102021168 -0.016040832347 -0.017180012092 -0.0185005362 -0.019977156494 -0.021578947871 -0.023270619986 
-0.025014270991 -0.02677130469 -0.028504271904 -0.030178725229 -0.031764751144 -0.033238288006 -0.034581706038 -0.035783985222 -0.036840139343 
-0.037750146498 -0.038517667195 -0.039148311954 -0.039648419857 -0.040023777373 -0.040279243563 -0.040418708838 -0.040445540686 -0.040367234705 
-0.040181609601 -0.039891920923 -0.039502338857 -0.039017953912 -0.03844461503 -0.037788401222 -0.037054706587 -0.036246610265 -0.035362108445 
-0.034390339115 -0.033307574364 -0.032075310195 -0.03064533769 -0.028977448921 -0.027071621516 -0.025008404979 -0.022980063827 -0.021282258776 
-0.020227011795 -0.019952308811 -0.020244466193 -0.014365321505 -0.014430087889 -0.014675849143 -0.015156839998 -0.015870361584 -0.016795176598 