# vtk DataFile Version 4.1
vtk output
ASCII
DATASET STRUCTURED_GRID
DIMENSIONS 51 51 1
POINTS 2601 float
0 0 0 0.02 0 0 0.04 0 0 
0.06 0 0 0.08 0 0 0.1 0 0 
0.12 0 0 0.14 0 0 0.16 0 0 
0.18 0 0 0.2 0 0 0.22 0 0 
0.24 0 0 0.26 0 0 0.28 0 0 
0.3 0 0 0.32 0 0 0.34 0 0 
0.36 0 0 0.38 0 0 0.4 0 0 
0.42 0 0 0.44 0 0 0.46 0 0 
0.48 0 0 0.5 0 0 0.52 0 0 
0.54 0 0 0.56 0 0 0.58 0 0 
0.6 0 0 0.62 0 0 0.64 0 0 
0.66 0 0 0.68 0 0 0.7 0 0 
0.72 0 0 0.74 0 0 0.76 0 0 
0.78 0 0 0.8 0 0 0.82 0 0 
0.84 0 0 0.86 0 0 0.88 0 0 
0.9 0 0 0.92 0 0 0.94 0 0 
0.96 0 0 0.98 0 0 1 0 0 
0 0.02 0 0.02 0.02 0 0.04 0.02 0 
0.06 0.02 0 0.08 0.02 0 0.1 0.02 0 
0.12 0.02 0 0.14 0.02 0 0.16 0.02 0 
0.18 0.02 0 0.2 0.02 0 0.22 0.02 0 
0.24 0.02 0 0.26 0.02 0 0.28 0.02 0 
0.3 0.02 0 0.32 0.02 0 0.34 0.02 0 
0.36 0.02 0 0.38 0.02 0 0.4 0.02 0 
0.42 0.02 0 0.44 0.02 0 0.46 0.02 0 
0.48 0.02 0 0.5 0.02 0 0.52 0.02 0 
0.54 0.02 0 0.56 0.02 0 0.58 0.02 0 
0.6 0.02 0 0.62 0.02 0 0.64 0.02 0 
0.66 0.02 0 0.68 0.02 0 0.7 0.02 0 
0.72 0.02 0 0.74 0.02 0 0.76 0.02 0 
0.78 0.02 0 0.8 0.02 0 0.82 0.02 0 
0.84 0.02 0 0.86 0.02 0 0.88 0.02 0 
0.9 0.02 0 0.92 0.02 0 0.94 0.02 0 
0.96 0.02 0 0.98 0.02 0 1 0.02 0 
0 0.04 0 0.02 0.04 0 0.04 0.04 0 
0.06 0.04 0 0.08 0.04 0 0.1 0.04 0 
0.12 0.04 0 0.14 0.04 0 0.16 0.04 0 
0.18 0.04 0 0.2 0.04 0 0.22 0.04 0 
0.24 0.04 0 0.26 0.04 0 0.28 0.04 0 
0.3 0.04 0 0.32 0.04 0 0.34 0.04 0 
0.36 0.04 0 0.38 0.04 0 0.4 0.04 0 
0.42 0.04 0 0.44 0.04 0 0.46 0.04 0 
0.48 0.04 0 0.5 0.04 0 0.52 0.04 0 
0.54 0.04 0 0.56 0.04 0 0.58 0.04 0 
0.6 0.04 0 0.62 0.04 0 0.64 0.04 0 
0.66 0.04 0 0.68 0.04 0 0.7 0.04 0 
0.72 0.04 0 0.74 0.04 0 0.76 0.04 0 
0.78 0.04 0 0.8 0.04 0 0.82 0.04 0 
0.84 0.04 0 0.86 0.04 0 0.88 0.04 0 
0.9 0.04 0 0.92 0.04 0 0.94 0.04 0 
0.96 0.04 0 0.98 0.04 0 1 0.04 0 
0 0.06 0 0.02 0.06 0 0.04 0.06 0 
0.06 0.06 0 0.08 0.06 0 0.1 0.06 0 
0.12 0.06 0 0.14 0.06 0 0.16 0.06 0 
0.18 0.06 0 0.2 0.06 0 0.22 0.06 0 
0.24 0.06 0 0.26 0.06 0 0.28 0.06 0 
0.3 0.06 0 0.32 0.06 0 0.34 0.06 0 
0.36 0.06 0 0.38 0.06 0 0.4 0.06 0 
0.42 0.06 0 0.44 0.06 0 0.46 0.06 0 
0.48 0.06 0 0.5 0.06 0 0.52 0.06 0 
0.54 0.06 0 0.56 0.06 0 0.58 0.06 0 
0.6 0.06 0 0.62 0.06 0 0.64 0.06 0 
0.66 0.06 0 0.68 0.06 0 0.7 0.06 0 
0.72 0.06 0 0.74 0.06 0 0.76 0.06 0 
0.78 0.06 0 0.8 0.06 0 0.82 0.06 0 
0.84 0.06 0 0.86 0.06 0 0.88 0.06 0 
0.9 0.06 0 0.92 0.06 0 0.94 0.06 0 
0.96 0.06 0 0.98 0.06 0 1 0.06 0 
0 0.08 0 0.02 0.08 0 0.04 0.08 0 
0.06 0.08 0 0.08 0.08 0 0.1 0.08 0 
0.12 0.08 0 0.14 0.08 0 0.16 0.08 0 
0.18 0.08 0 0.2 0.08 0 0.22 0.08 0 
0.24 0.08 0 0.26 0.08 0 0.28 0.08 0 
0.3 0.08 0 0.32 0.08 0 0.34 0.08 0 
0.36 0.08 0 0.38 0.08 0 0.4 0.08 0 
0.42 0.08 0 0.44 0.08 0 0.46 0.08 0 
0.48 0.08 0 0.5 0.08 0 0.52 0.08 0 
0.54 0.08 0 0.56 0.08 0 0.58 0.08 0 
0.6 0.08 0 0.62 0.08 0 0.64 0.08 0 
0.66 0.08 0 0.68 0.08 0 0.7 0.08 0 
0.72 0.08 0 0.74 0.08 0 0.76 0.08 0 
0.78 0.08 0 0.8 0.08 0 0.82 0.08 0 
0.84 0.08 0 0.86 0.08 0 0.88 0.08 0 
0.9 0.08 0 0.92 0.08 0 0.94 0.08 0 
0.96 0.08 0 0.98 0.08 0 1 0.08 0 
0 0.1 0 0.02 0.1 0 0.04 0.1 0 
0.06 0.1 0 0.08 0.1 0 0.1 0.1 0 
0.12 0.1 0 0.14 0.1 0 0.16 0.1 0 
0.18 0.1 0 0.2 0.1 0 0.22 0.1 0 
0.24 0.1 0 0.26 0.1 0 0.28 0.1 0 
0.3 0.1 0 0.32 0.1 0 0.34 0.1 0 
0.36 0.1 0 0.38 0.1 0 0.4 0.1 0 
0.42 0.1 0 0.44 0.1 0 0.46 0.1 0 
0.48 0.1 0 0.5 0.1 0 0.52 0.1 0 
0.54 0.1 0 0.56 0.1 0 0.58 0.1 0 
0.6 0.1 0 0.62 0.1 0 0.64 0.1 0 
0.66 0.1 0 0.68 0.1 0 0.7 0.1 0 
0.72 0.1 0 0.74 0.1 0 0.76 0.1 0 
0.78 0.1 0 0.8 0.1 0 0.82 0.1 0 
0.84 0.1 0 0.86 0.1 0 0.88 0.1 0 
0.9 0.1 0 0.92 0.1 0 0.94 0.1 0 
0.96 0.1 0 0.98 0.1 0 1 0.1 0 
0 0.12 0 0.02 0.12 0 0.04 0.12 0 
0.06 0.12 0 0.08 0.12 0 0.1 0.12 0 
0.12 0.12 0 0.14 0.12 0 0.16 0.12 0 
0.18 0.12 0 0.2 0.12 0 0.22 0.12 0 
0.24 0.12 0 0.26 0.12 0 0.28 0.12 0 
0.3 0.12 0 0.32 0.12 0 0.34 0.12 0 
0.36 0.12 0 0.38 0.12 0 0.4 0.12 0 
0.42 0.12 0 0.44 0.12 0 0.46 0.12 0 
0.48 0.12 0 0.5 0.12 0 0.52 0.12 0 
0.54 0.12 0 0.56 0.12 0 0.58 0.12 0 
0.6 0.12 0 0.62 0.12 0 0.64 0.12 0 
0.66 0.12 0 0.68 0.12 0 0.7 0.12 0 
0.72 0.12 0 0.74 0.12 0 0.76 0.12 0 
0.78 0.12 0 0.8 0.12 0 0.82 0.12 0 
0.84 0.12 0 0.86 0.12 0 0.88 0.12 0 
0.9 0.12 0 0.92 0.12 0 0.94 0.12 0 
0.96 0.12 0 0.98 0.12 0 1 0.12 0 
0 0.14 0 0.02 0.14 0 0.04 0.14 0 
0.06 0.14 0 0.08 0.14 0 0.1 0.14 0 
0.12 0.14 0 0.14 0.14 0 0.16 0.14 0 
0.18 0.14 0 0.2 0.14 0 0.22 0.14 0 
0.24 0.14 0 0.26 0.14 0 0.28 0.14 0 
0.3 0.14 0 0.32 0.14 0 0.34 0.14 0 
0.36 0.14 0 0.38 0.14 0 0.4 0.14 0 
0.42 0.14 0 0.44 0.14 0 0.46 0.14 0 
0.48 0.14 0 0.5 0.14 0 0.52 0.14 0 
0.54 0.14 0 0.56 0.14 0 0.58 0.14 0 
0.6 0.14 0 0.62 0.14 0 0.64 0.14 0 
0.66 0.14 0 0.68 0.14 0 0.7 0.14 0 
0.72 0.14 0 0.74 0.14 0 0.76 0.14 0 
0.78 0.14 0 0.8 0.14 0 0.82 0.14 0 
0.84 0.14 0 0.86 0.14 0 0.88 0.14 0 
0.9 0.14 0 0.92 0.14 0 0.94 0.14 0 
0.96 0.14 0 0.98 0.14 0 1 0.14 0 
0 0.16 0 0.02 0.16 0 0.04 0.16 0 
0.06 0.16 0 0.08 0.16 0 0.1 0.16 0 
0.12 0.16 0 0.14 0.16 0 0.16 0.16 0 
0.18 0.16 0 0.2 0.16 0 0.22 0.16 0 
0.24 0.16 0 0.26 0.16 0 0.28 0.16 0 
0.3 0.16 0 0.32 0.16 0 0.34 0.16 0 
0.36 0.16 0 0.38 0.16 0 0.4 0.16 0 
0.42 0.16 0 0.44 0.16 0 0.46 0.16 0 
0.48 0.16 0 0.5 0.16 0 0.52 0.16 0 
0.54 0.16 0 0.56 0.16 0 0.58 0.16 0 
0.6 0.16 0 0.62 0.16 0 0.64 0.16 0 
0.66 0.16 0 0.68 0.16 0 0.7 0.16 0 
0.72 0.16 0 0.74 0.16 0 0.76 0.16 0 
0.78 0.16 0 0.8 0.16 0 0.82 0.16 0 
0.84 0.16 0 0.86 0.16 0 0.88 0.16 0 
0.9 0.16 0 0.92 0.16 0 0.94 0.16 0 
0.96 0.16 0 0.98 0.16 0 1 0.16 0 
0 0.18 0 0.02 0.18 0 0.04 0.18 0 
0.06 0.18 0 0.08 0.18 0 0.1 0.18 0 
0.12 0.18 0 0.14 0.18 0 0.16 0.18 0 
0.18 0.18 0 0.2 0.18 0 0.22 0.18 0 
0.24 0.18 0 0.26 0.18 0 0.28 0.18 0 
0.3 0.18 0 0.32 0.18 0 0.34 0.18 0 
0.36 0.18 0 0.38 0.18 0 0.4 0.18 0 
0.42 0.18 0 0.44 0.18 0 0.46 0.18 0 
0.48 0.18 0 0.5 0.18 0 0.52 0.18 0 
0.54 0.18 0 0.56 0.18 0 0.58 0.18 0 
0.6 0.18 0 0.62 0.18 0 0.64 0.18 0 
0.66 0.18 0 0.68 0.18 0 0.7 0.18 0 
0.72 0.18 0 0.74 0.18 0 0.76 0.18 0 
0.78 0.18 0 0.8 0.18 0 0.82 0.18 0 
0.84 0.18 0 0.86 0.18 0 0.88 0.18 0 
0.9 0.18 0 0.92 0.18 0 0.94 0.18 0 
0.96 0.18 0 0.98 0.18 0 1 0.18 0 
0 0.2 0 0.02 0.2 0 0.04 0.2 0 
0.06 0.2 0 0.08 0.2 0 0.1 0.2 0 
0.12 0.2 0 0.14 0.2 0 0.16 0.2 0 
0.18 0.2 0 0.2 0.2 0 0.22 0.2 0 
0.24 0.2 0 0.26 0.2 0 0.28 0.2 0 
0.3 0.2 0 0.32 0.2 0 0.34 0.2 0 
0.36 0.2 0 0.38 0.2 0 0.4 0.2 0 
0.42 0.2 0 0.44 0.2 0 0.46 0.2 0 
0.48 0.2 0 0.5 0.2 0 0.52 0.2 0 
0.54 0.2 0 0.56 0.2 0 0.58 0.2 0 
0.6 0.2 0 0.62 0.2 0 0.64 0.2 0 
0.66 0.2 0 0.68 0.2 0 0.7 0.2 0 
0.72 0.2 0 0.74 0.2 0 0.76 0.2 0 
0.78 0.2 0 0.8 0.2 0 0.82 0.2 0 
0.84 0.2 0 0.86 0.2 0 0.88 0.2 0 
0.9 0.2 0 0.92 0.2 0 0.94 0.2 0 
0.96 0.2 0 0.98 0.2 0 1 0.2 0 
0 0.22 0 0.02 0.22 0 0.04 0.22 0 
0.06 0.22 0 0.08 0.22 0 0.1 0.22 0 
0.12 0.22 0 0.14 0.22 0 0.16 0.22 0 
0.18 0.22 0 0.2 0.22 0 0.22 0.22 0 
0.24 0.22 0 0.26 0.22 0 0.28 0.22 0 
0.3 0.22 0 0.32 0.22 0 0.34 0.22 0 
0.36 0.22 0 0.38 0.22 0 0.4 0.22 0 
0.42 0.22 0 0.44 0.22 0 0.46 0.22 0 
0.48 0.22 0 0.5 0.22 0 0.52 0.22 0 
0.54 0.22 0 0.56 0.22 0 0.58 0.22 0 
0.6 0.22 0 0.62 0.22 0 0.64 0.22 0 
0.66 0.22 0 0.68 0.22 0 0.7 0.22 0 
0.72 0.22 0 0.74 0.22 0 0.76 0.22 0 
0.78 0.22 0 0.8 0.22 0 0.82 0.22 0 
0.84 0.22 0 0.86 0.22 0 0.88 0.22 0 
0.9 0.22 0 0.92 0.22 0 0.94 0.22 0 
0.96 0.22 0 0.98 0.22 0 1 0.22 0 
0 0.24 0 0.02 0.24 0 0.04 0.24 0 
0.06 0.24 0 0.08 0.24 0 0.1 0.24 0 
0.12 0.24 0 0.14 0.24 0 0.16 0.24 0 
0.18 0.24 0 0.2 0.24 0 0.22 0.24 0 
0.24 0.24 0 0.26 0.24 0 0.28 0.24 0 
0.3 0.24 0 0.32 0.24 0 0.34 0.24 0 
0.36 0.24 0 0.38 0.24 0 0.4 0.24 0 
0.42 0.24 0 0.44 0.24 0 0.46 0.24 0 
0.48 0.24 0 0.5 0.24 0 0.52 0.24 0 
0.54 0.24 0 0.56 0.24 0 0.58 0.24 0 
0.6 0.24 0 0.62 0.24 0 0.64 0.24 0 
0.66 0.24 0 0.68 0.24 0 0.7 0.24 0 
0.72 0.24 0 0.74 0.24 0 0.76 0.24 0 
0.78 0.24 0 0.8 0.24 0 0.82 0.24 0 
0.84 0.24 0 0.86 0.24 0 0.88 0.24 0 
0.9 0.24 0 0.92 0.24 0 0.94 0.24 0 
0.96 0.24 0 0.98 0.24 0 1 0.24 0 
0 0.26 0 0.02 0.26 0 0.04 0.26 0 
0.06 0.26 0 0.08 0.26 0 0.1 0.26 0 
0.12 0.26 0 0.14 0.26 0 0.16 0.26 0 
0.18 0.26 0 0.2 0.26 0 0.22 0.26 0 
0.24 0.26 0 0.26 0.26 0 0.28 0.26 0 
0.3 0.26 0 0.32 0.26 0 0.34 0.26 0 
0.36 0.26 0 0.38 0.26 0 0.4 0.26 0 
0.42 0.26 0 0.44 0.26 0 0.46 0.26 0 
0.48 0.26 0 0.5 0.26 0 0.52 0.26 0 
0.54 0.26 0 0.56 0.26 0 0.58 0.26 0 
0.6 0.26 0 0.62 0.26 0 0.64 0.26 0 
0.66 0.26 0 0.68 0.26 0 0.7 0.26 0 
0.72 0.26 0 0.74 0.26 0 0.76 0.26 0 
0.78 0.26 0 0.8 0.26 0 0.82 0.26 0 
0.84 0.26 0 0.86 0.26 0 0.88 0.26 0 
0.9 0.26 0 0.92 0.26 0 0.94 0.26 0 
0.96 0.26 0 0.98 0.26 0 1 0.26 0 
0 0.28 0 0.02 0.28 0 0.04 0.28 0 
0.06 0.28 0 0.08 0.28 0 0.1 0.28 0 
0.12 0.28 0 0.14 0.28 0 0.16 0.28 0 
0.18 0.28 0 0.2 0.28 0 0.22 0.28 0 
0.24 0.28 0 0.26 0.28 0 0.28 0.28 0 
0.3 0.28 0 0.32 0.28 0 0.34 0.28 0 
0.36 0.28 0 0.38 0.28 0 0.4 0.28 0 
0.42 0.28 0 0.44 0.28 0 0.46 0.28 0 
0.48 0.28 0 0.5 0.28 0 0.52 0.28 0 
0.54 0.28 0 0.56 0.28 0 0.58 0.28 0 
0.6 0.28 0 0.62 0.28 0 0.64 0.28 0 
0.66 0.28 0 0.68 0.28 0 0.7 0.28 0 
0.72 0.28 0 0.74 0.28 0 0.76 0.28 0 
0.78 0.28 0 0.8 0.28 0 0.82 0.28 0 
0.84 0.28 0 0.86 0.28 0 0.88 0.28 0 
0.9 0.28 0 0.92 0.28 0 0.94 0.28 0 
0.96 0.28 0 0.98 0.28 0 1 0.28 0 
0 0.3 0 0.02 0.3 0 0.04 0.3 0 
0.06 0.3 0 0.08 0.3 0 0.1 0.3 0 
0.12 0.3 0 0.14 0.3 0 0.16 0.3 0 
0.18 0.3 0 0.2 0.3 0 0.22 0.3 0 
0.24 0.3 0 0.26 0.3 0 0.28 0.3 0 
0.3 0.3 0 0.32 0.3 0 0.34 0.3 0 
0.36 0.3 0 0.38 0.3 0 0.4 0.3 0 
0.42 0.3 0 0.44 0.3 0 0.46 0.3 0 
0.48 0.3 0 0.5 0.3 0 0.52 0.3 0 
0.54 0.3 0 0.56 0.3 0 0.58 0.3 0 
0.6 0.3 0 0.62 0.3 0 0.64 0.3 0 
0.66 0.3 0 0.68 0.3 0 0.7 0.3 0 
0.72 0.3 0 0.74 0.3 0 0.76 0.3 0 
0.78 0.3 0 0.8 0.3 0 0.82 0.3 0 
0.84 0.3 0 0.86 0.3 0 0.88 0.3 0 
0.9 0.3 0 0.92 0.3 0 0.94 0.3 0 
0.96 0.3 0 0.98 0.3 0 1 0.3 0 
0 0.32 0 0.02 0.32 0 0.04 0.32 0 
0.06 0.32 0 0.08 0.32 0 0.1 0.32 0 
0.12 0.32 0 0.14 0.32 0 0.16 0.32 0 
0.18 0.32 0 0.2 0.32 0 0.22 0.32 0 
0.24 0.32 0 0.26 0.32 0 0.28 0.32 0 
0.3 0.32 0 0.32 0.32 0 0.34 0.32 0 
0.36 0.32 0 0.38 0.32 0 0.4 0.32 0 
0.42 0.32 0 0.44 0.32 0 0.46 0.32 0 
0.48 0.32 0 0.5 0.32 0 0.52 0.32 0 
0.54 0.32 0 0.56 0.32 0 0.58 0.32 0 
[...]
CELL_DATA 2500
FIELD FieldData 2
pressure 1 2500 double
-0.0056351347828 -0.0056234030143 -0.0056474020646 -0.0057122040819 -0.0058120663608 -0.0059391509116 -0.0060878137488 -0.0062553187395 -0.0064416473494 
-0.0066485095868 -0.0068798517233 -0.0071391865166 -0.0074269928115 -0.0077436300577 -0.0080841106144 -0.0084403711409 -0.0088014273053 -0.009153808547 
-0.0094819544823 -0.0097684972572 -0.0099945184523 -0.010140049698 -0.010184994738 -0.010110304858 -0.0098992292649 -0.0095385220527 -0.009019587225 
-0.0083396595779 -0.0075031729618 -0.0065234243798 -0.0054282246397 -0.0042773650138 -0.0031143246429 -0.0019949651754 -0.00098261905484 -0.00014302114912 
0.00046266217615 0.00078677454177 0.00080533009481 0.00052788593021 3.3562182451e-05 -0.00059562921891 -0.0012597742896 -0.0018624333439 -0.0023383112944 
-0.0026737164264 -0.0028810903452 -0.0029815572419 -0.0029970598562 -0.0029557615106 -0.0056480636304 -0.0056361771795 -0.0056613183521 -0.0057240826343 
-0.0058189985812 -0.0059380207768 -0.0060755170807 -0.0062285513317 -0.0063988335924 -0.0065887680886 -0.0068047473213 -0.0070515112972 -0.0073284966461 
-0.0076346813715 -0.0079655665703 -0.0083139890121 -0.0086703833709 -0.0090226469045 -0.009356047958 -0.0096532269759 -0.0098946684464 -0.010059655693 
-0.010127414149 -0.010078325846 -0.0098950796082 -0.0095637235809 -0.0090747154538 -0.0084239896664 -0.0076140014325 -0.0066550931174 -0.0056126184077 
-0.0044990795364 -0.0033673595587 -0.0022752420638 -0.0012858476205 -0.00046387095703 0.00013097445083 0.00045279964637 0.00047998648509 0.00022589238496 
-0.00025336080747 -0.00082468163571 -0.0014308711426 -0.0019747518857 -0.0023942994446 -0.0026820656946 -0.0028562540856 -0.0029416115861 -0.0029585841067 
-0.0029162285752 -0.0056272159595 -0.0056143852715 -0.0056440150671 -0.0057116619372 -0.0058072576348 -0.0059199887674 -0.006045841209 -0.0061812562446 
-0.006334352051 -0.0065114651158 -0.006718236017 -0.0069590856891 -0.0072347024085 -0.0075436336417 -0.0078821807542 -0.0082443272236 -0.0086212537704 
-0.0090008676227 -0.0093675494487 -0.0097025423172 -0.0099848979865 -0.010192611884 -0.010303832852 -0.010297966974 -0.010156704682 -0.0098650737511 
-0.0094124603615 -0.0087933793468 -0.0080071333262 -0.0071049634657 -0.0060893843374 -0.0049982594861 -0.0038813575179 -0.0027959883659 -0.0018048815839 
-0.00097227701134 -0.00035766131899 -7.1930501177e-06 5.6643962024e-05 -0.00015422272774 -0.00058527182159 -0.0011389875655 -0.0017032462554 -0.002213973166 
-0.0025921512433 -0.0028260035477 -0.0029543717488 -0.0030075678256 -0.0030078209347 -0.0029557535445 -0.0055609535344 -0.0055557049195 -0.0055968193443 
-0.0056741013713 -0.005772760255 -0.0058805506171 -0.0059948122754 -0.0061188280908 -0.0062632556598 -0.0064374000951 -0.0066481842132 -0.0068998062397 
-0.0071936791714 -0.0075290139212 -0.0079028137041 -0.0083090941366 -0.008738091148 -0.00917580686 -0.0096043328281 -0.010002769621 -0.010348359592 
-0.010617715579 -0.010787887565 -0.010837389756 -0.01074729186 -0.010502328959 -0.010092011952 -0.0095117230233 -0.0087712083076 -0.0079040781797 
-0.0069138192934 -0.0058395727136 -0.0047290568968 -0.0036377572857 -0.002626829843 -0.0017593448354 -0.0010944265396 -0.00067919772082 -0.00053900995658 
-0.0006674036813 -0.0010188794754 -0.0015097712886 -0.0020335372803 -0.0025052943316 -0.0028644273041 -0.0030618165568 -0.0031501151658 -0.0031705069533 
-0.0031518183344 -0.0030979692102 -0.0054457396446 -0.0054577015116 -0.0055159992646 -0.0056046314744 -0.0057065980036 -0.0058130757011 -0.0059244963602 
-0.0060501810389 -0.0062028258611 -0.0063934935966 -0.0066299701058 -0.0069170816575 -0.0072569809784 -0.0076492985715 -0.0080903495322 -0.0085722669472 
-0.0090824675227 -0.0096039069774 -0.010115989204 -0.010595679549 -0.011018719612 -0.011360669435 -0.011597935524 -0.011708856266 -0.011674808178 
-0.011481344751 -0.011119171172 -0.010584745676 -0.00989994918 -0.0090638585075 -0.0080990929251 -0.0070402426954 -0.0059314246605 -0.0048248225857 
-0.0037786378301 -0.0028536813956 -0.0021081217211 -0.0015902357757 -0.0013295689228 -0.0013278435173 -0.0015523245529 -0.0019357603271 -0.0023868578318 
-0.0028112430918 -0.0031263162236 -0.0033231411025 -0.0033922566888 -0.0033961861374 -0.0033695285219 -0.0033239860773 -0.005282178175 -0.005318560044 
-0.005395631433 -0.0054947821019 -0.0056054706384 -0.0057194064848 -0.0058435629521 -0.0059908876605 -0.0061751310152 -0.006407883617 -0.0066976646493 
-0.0070498596268 -0.0074668406755 -0.0079470730809 -0.0084843711237 -0.0090674488517 -0.0096801707882 -0.010302486672 -0.010911494746 -0.011482618539 
-0.011990617447 -0.012410607596 -0.012719123902 -0.012895197336 -0.012921476665 -0.012785217992 -0.012479185149 -0.012002586967 -0.011368022891 
-0.01057155247 -0.0096365116617 -0.0085944516492 -0.0074853760533 -0.0063570502059 -0.0052634512664 -0.0042619816527 -0.0034090618057 -0.0027539450767 
-0.0023310514983 -0.00215189346 -0.0021986859182 -0.0024225959862 -0.0027493098873 -0.0030924127608 -0.0033729661816 -0.0035493541887 -0.0036321447444 
-0.0036471855392 -0.0036303442851 -0.003601499945 -0.0050753950969 -0.0051400747476 -0.0052351709496 -0.0053494368512 -0.0054742434116 -0.0056106251659 
-0.0057686356085 -0.0059620010489 -0.0062043629714 -0.0065074097174 -0.0068798274613 -0.0073269796628 -0.0078497187965 -0.0084436994509 -0.0090990277995 
-0.0098006021543 -0.010529159841 -0.011262257214 -0.011975411048 -0.012643077613 -0.013239639909 -0.013740466512 -0.014122952636 -0.014367553841 
-0.014458653003 -0.014385386216 -0.014142514929 -0.013731481368 -0.013149990141 -0.012398795264 -0.011498355464 -0.010476347953 -0.0093679250477 
-0.0082154560583 -0.0070675476966 -0.0059770337294 -0.0049976009305 -0.004178861958 -0.0035600340294 -0.0031629669353 -0.0029859988647 -0.0030007286445 
-0.0031538528337 -0.0033756010688 -0.0035958680091 -0.0037678126841 -0.0038687022034 -0.003904149249 -0.003913602645 -0.0039069764438 -0.0048413242005 
-0.0049360128752 -0.0050484618101 -0.0051804892721 -0.0053325164194 -0.0055103052269 -0.0057246573986 -0.0059885842186 -0.0063151056658 -0.0067153785697 
-0.0071976195883 -0.0077652878746 -0.0084162062522 -0.0091421668614 -0.0099293461237 -0.010759515285 -0.011610946279 -0.012459547606 -0.013279802055 
-0.014045715353 -0.014731910472 -0.015314634925 -0.015772708707 -0.016088272533 -0.016247468668 -0.016241088333 -0.01606527731 -0.015722499842 
-0.015198465308 -0.014497442815 -0.013636785237 -0.012639839372 -0.011536309464 -0.010362355554 -0.0091602078768 -0.0079769978834 -0.006862503151 
-0.0058655945515 -0.0050294049179 -0.0043856318306 -0.003948897253 -0.0037125628809 -0.0036476220842 -0.003706189972 -0.0038306466725 -0.0039675725067 
-0.0040799013435 -0.0041679555328 -0.0042156827369 -0.0042338836019 -0.004607007725 -0.0047289720419 -0.0048595894275 -0.0050183928814 -0.0052126501672 
-0.0054501123485 -0.0057408704797 -0.0060968786025 -0.0065300031348 -0.0070503700905 -0.0076638111792 -0.0083704486533 -0.0091640419645 -0.010032338503 
-0.010958391103 -0.011921393163 -0.012897856905 -0.013862496627 -0.014789147045 -0.015651939635 -0.016426273406 -0.017089728457 -0.017622753062 
-0.018009208183 -0.018236826657 -0.018297701642 -0.018188948873 -0.017913454899 -0.017448953552 -0.016801769493 -0.015986143902 -0.01502088052 
-0.013929866321 -0.012742501197 -0.01149384548 -0.010224261705 -0.0089782921986 -0.0078025357778 -0.0067424134787 -0.0058379514595 -0.0051190268753 
-0.0046008388857 -0.0042805836202 -0.0041364052201 -0.0041296876486 -0.0042118135799 -0.0043365231678 -0.0044628612579 -0.0045477605308 -0.0045910406749 
-0.0044085368432 -0.0045530327904 -0.0047075526771 -0.0049030864892 -0.0051524645047 -0.0054638373389 -0.0058465008055 -0.0063110534674 -0.0068679460305 
-0.0075245087383 -0.0082828269534 -0.0091386509251 -0.010081465541 -0.01109578823 -0.012161895761 -0.013257034716 -0.014356257354 -0.015433326567 
-0.016461999226 -0.017416963786 -0.018274789927 -0.019014604722 -0.019618537064 -0.020072076953 -0.02036441366 -0.020488851478 -0.0204432392 
-0.020230505762 -0.019825009609 -0.019233824457 -0.018468141281 -0.017542256477 -0.016474187358 -0.015286324138 -0.014006024239 -0.012665980823 
-0.011304152931 -0.0099630374568 -0.0086880923409 -0.0075252071195 -0.0065172496052 -0.0056998570091 -0.0050967420914 -0.0047148645229 -0.0045400666829 
-0.0045346603187 -0.004640476019 -0.0047893846484 -0.0049233241234 -0.0049945715978 -0.004288097086 -0.0044542797678 -0.0046359091371 -0.0048752261408 
-0.0051878848404 -0.0055822782666 -0.0060668046425 -0.0066506924444 -0.0073415209517 -0.008142535878 -0.0090511221281 -0.01005841112 -0.011150403023 
-0.012308537282 -0.013510848769 -0.014732753069 -0.015947951633 -0.017129827577 -0.018252363815 -0.019291185464 -0.020224258555 -0.021032288535 
-0.02169908466 -0.02221180623 -0.022561192787 -0.02274175486 -0.022752011327 -0.022594771408 -0.022245306559 -0.021710540605 -0.020998838757 
-0.020120261667 -0.019087192629 -0.017915121034 -0.016623529609 -0.015236816208 -0.013785130236 -0.012304939569 -0.01083909724 -0.0094361411875 
-0.008148525972 -0.0070294153562 -0.0061275624318 -0.0054797559319 -0.0051006307416 -0.0049712110021 -0.0050320901439 -0.0051933244938 -0.0053681042409 
-0.0054665047498 -0.0042872634213 -0.0044720255335 -0.0046824909774 -0.0049685117594 -0.0053479168573 -0.00582934808 -0.0064204359335 -0.0071280042028 
-0.0079555286741 -0.0089013923093 -0.0099580276853 -0.011112738966 -0.012348085337 -0.013642859017 -0.014972811607 -0.016311521673 -0.017631904538 
-0.018907136539 -0.020111819035 -0.02122271822 -0.022219178247 -0.023083577032 -0.023801534991 -0.024362059716 -0.024757597705 -0.024984017444 
-0.025040554496 -0.02492978089 -0.024631330823 -0.024151632658 -0.023496530286 -0.022672333679 -0.021686362925 -0.020547692571 -0.01926815554 
-0.017863625696 -0.016355543518 -0.014772581676 -0.013152244886 -0.011542056762 -0.0099997832046 -0.0085918642655 -0.0073888880035 -0.0064566527842 
-0.0058416034736 -0.0055513500249 -0.0055369074743 -0.005694431111 -0.0058984931578 -0.0060241407733 -0.0044359670294 -0.0046355742484 -0.0048738407566 
-0.0052059675231 -0.0056517032157 -0.0062200071696 -0.0069171466924 -0.0077463492106 -0.0087064202991 -0.0097906732347 -0.010987417717 -0.012280199069 
-0.013648475491 -0.01506827575 -0.01651296649 -0.017954846559 -0.01936611498 -0.020720157002 -0.021992347719 -0.023160523324 -0.024205582839 
-0.025111713253 -0.025866557715 -0.026461225011 -0.026890100163 -0.027150547663 -0.027242572547 -0.027168561728 -0.02691475571 -0.026487082304 
-0.025889292891 -0.025124637787 -0.024196201245 -0.023107490767 -0.021863376154 -0.020471488756 -0.018944164915 -0.017300942376 -0.01557148091 
-0.013798559545 -0.012040470626 -0.010371654261 -0.0088797860151 -0.0076569303215 -0.006782319689 -0.0062961068372 -0.0061697452622 -0.0062930840477 
-0.0065062004337 -0.0066761859993 -0.0047513263804 -0.0049606262884 -0.0052234213424 -0.005598668283 -0.0061075678372 -0.0067590241847 -0.0075567741949 
-0.008500018181 -0.0095827841373 -0.010794179464 -0.012118622756 -0.013536176351 -0.015023111559 -0.016552526149 -0.018095966262 -0.019624473709 
-0.021109966452 -0.022526148202 -0.023849056862 -0.025057839184 -0.026135041698 -0.027066891529 -0.027843342658 -0.02845780912 -0.028906758649 
-0.029189172071 -0.029305948371 -0.029259285782 -0.029043149473 -0.028663043923 -0.02812111728 -0.027418364324 -0.026554687241 -0.025529202817 
-0.024340946756 -0.022990158753 -0.021480340043 -0.019821228888 -0.018032705071 -0.01614938534 -0.014225231372 -0.01233681007 -0.010582933168 
-0.0090774042985 -0.0079310882826 -0.0072209022219 -0.0069496408271 -0.0070172537872 -0.0072461548487 -0.0074473164062 -0.0052361891249 -0.0054491058739 
-0.0057321236072 -0.0061461501955 -0.0067131537813 -0.0074407579493 -0.0083296681041 -0.0093750664557 -0.010567041399 -0.011890985484 -0.013327673754 
-0.014853714906 -0.016442006493 -0.018063302384 -0.019687378466 -0.021284462653 -0.022826295858 -0.024286764316 -0.025642858213 -0.026875073628 
-0.027967861901 -0.028909775253 -0.029693207112 -0.030313987261 -0.030770745328 -0.03106416887 -0.031196214304 -0.031168294332 -0.030983157895 
-0.030645148815 -0.030155435521 -0.029513657848 -0.028717702013 -0.027763695718 -0.026646360689 -0.025359963002 -0.023900158253 -0.022267034375 
-0.020469577296 -0.018531521595 -0.01649803579 -0.014441852275 -0.012466232503 -0.010700720242 -0.0092845400747 -0.0083331531233 -0.0078890862482 
-0.0078751417869 -0.0081004513444 -0.0083371032621 -0.0058803106377 -0.0060910616838 -0.0063898572382 -0.0068377904157 -0.0074561046846 -0.0082502903867 
-0.009218054701 -0.010351285166 -0.011636878011 -0.013056776344 -0.014588283494 -0.016204407683 -0.017875279026 -0.019569465967 -0.021255416241 
-0.022902700517 -0.024482734121 -0.025969914953 -0.027342190174 -0.02858169467 -0.029675057961 -0.03061321486 -0.031391080374 -0.032006878821 
-0.03246134093 -0.032756848329 -0.032896591624 -0.032880734302 -0.032720623053 -0.032418590005 -0.031975509379 -0.031390514872 -0.030660642963 
-0.029780529782 -0.028742345296 -0.027536234082 -0.02615164194 -0.024580017502 -0.022819349178 -0.020880794747 -0.018797126722 -0.01663173019 
-0.014485406955 -0.012496342864 -0.010826776514 -0.0096295685011 -0.0089922095135 -0.0088720874241 -0.0090767911234 -0.0093458969009 -0.0066633917288 
-0.0068672468447 -0.0071778435398 -0.0076543154685 -0.0083157484386 -0.0091653249905 -0.010198275709 -0.011404069815 -0.012766742561 -0.014265056655 
-0.015872792787 -0.017559955408 -0.019294239442 -0.021042468041 -0.022772020999 -0.024451669548 -0.026052861952 -0.027550516669 -0.028923850723 
-0.030156912263 -0.031238518488 -0.032162072802 -0.032924912151 -0.033527488784 -0.033972450532 -0.034263673504 -0.034405346382 -0.034398362587 
-0.034257646485 -0.033985145359 -0.033581712151 -0.033046637284 -0.032377124409 -0.031567720695 -0.030609820499 -0.02949149248 -0.028198085683 
-0.026714215172 -0.025027859483 -0.023137186155 -0.021060217504 -0.018846413458 -0.016587523392 -0.014422674056 -0.012530053264 -0.011095995843 
-0.010254962008 -0.010008617308 -0.010176304495 -0.010469971561 -0.0075584427289 -0.0077520253354 -0.0080708063515 -0.0085698420315 -0.0092654162418 
-0.0101586372 -0.011243049295 -0.012506114232 -0.013929284484 -0.015488203591 -0.017153675411 -0.018893227389 -0.020672568178 -0.022457163457 
-0.024213225154 -0.025909093832 -0.027516308858 -0.029010622185 -0.030372815424 -0.03158883158 -0.032649789306 -0.033551417293 -0.034293272978 
-0.034877796008 -0.035309245476 -0.035592705062 -0.035733154713 -0.035732840344 -0.035607113681 -0.035357985962 -0.034986632958 -0.03449300365 
-0.033875240323 -0.033128922271 -0.032246195591 -0.03121503482 -0.030019025965 -0.028638376143 -0.027053084688 -0.025249275891 -0.023229359186 
-0.021025637631 -0.018715067236 -0.016430018987 -0.014356428466 -0.012707828774 -0.011664517527 -0.011279494428 -0.011397980009 -0.0117143733 
-0.0085348698781 -0.0087158928526 -0.0090391185324 -0.00955434893 -0.010274976331 -0.01120054422 -0.012323332144 -0.013628996344 -0.015096526807 
-0.01669890729 -0.018404641939 -0.020179262206 -0.021986995012 -0.023791938559 -0.025559487448 -0.027257700937 -0.028858498898 -0.030338797651 
-0.031680915201 -0.032872825539 -0.033907786129 -0.034783651954 -0.035501959693 -0.036066767225 -0.036483567912 -0.036758257789 -0.036896303119 
-0.036901435411 -0.036787249222 -0.036556010754 -0.036209422232 -0.035748367416 -0.035172367212 -0.034478729976 -0.033661482109 -0.032710168461 
-0.031608885638 -0.030336185312 -0.028866899256 -0.027177299891 -0.025254892214 -0.023113227202 -0.020810077119 -0.018464003439 -0.016260024592 
-0.014430780678 -0.013198179808 -0.012669866307 -0.01272839333 -0.013058162758 -0.0095609573759 -0.0097274966543 -0.010051087021 -0.010576087394 
-0.011313240204 -0.012260824588 -0.01340990918 -0.014744409317 -0.016241194304 -0.017871315287 -0.019601509165 -0.021395895814 -0.023217339031 
-0.025028876799 -0.026795354375 -0.028484809135 -0.030069911642 -0.031528728965 -0.032845244354 -0.034009310773 -0.03501613747 -0.035865496932 
-0.036560510997 -0.037106478828 -0.037509667398 -0.037776349512 -0.037912136154 -0.037922063854 -0.037816800437 -0.037598917479 -0.037270673318 
-0.036833933371 -0.036289686755 -0.035637273323 -0.03487324164 -0.033989916154 -0.032973832035 -0.031804544319 -0.030454904442 -0.028894463891 
-0.027097996387 -0.025060491383 -0.022817887238 -0.020469115991 -0.01818984946 -0.016222555855 -0.014823766906 -0.014155281557 -0.014145995719 
-0.014480515571 -0.010605632934 -0.010755465132 -0.011075016451 -0.011603690203 -0.012349784307 -0.013310166595 -0.01447456701 -0.01582532372 
-0.017337836454 -0.018981800343 -0.020722802038 -0.022523806822 -0.024346574186 -0.026153466263 -0.027909024713 -0.029581661503 -0.031144836595 
-0.032577855287 -0.033866258904 -0.035001588922 -0.035980832412 -0.036805283698 -0.037479322286 -0.038009021804 -0.038400961277 -0.03866138924 
-0.03879570877 -0.038810066194 -0.038711817033 -0.038503772479 -0.038188661701 -0.03776915797 -0.037247596584 -0.036625316547 -0.035901628483 
-0.035072309792 -0.034127650448 -0.033050406898 -0.031814533397 -0.030386488597 -0.028731673056 -0.02682843749 -0.02469019474 -0.022392136549 
-0.020093064855 -0.018035579105 -0.016501776457 -0.015703688433 -0.015622532111 -0.015954114647 -0.011639974144 -0.011769743865 -0.012080759725 
-0.012607692937 -0.013356149406 -0.014321181377 -0.01549106565 -0.016847008049 -0.018363514152 -0.020009522543 -0.021749842487 -0.023546510924 
-0.025360646991 -0.027154199805 -0.028891812797 -0.030542405506 -0.032080257413 -0.03348587153 -0.034746140105 -0.035854138339 -0.036808259741 
-0.037611029055 -0.038267633381 -0.038784478493 -0.039168098902 -0.03942434727 -0.039558221141 -0.039576694123 -0.039484072561 -0.039283271902 
-0.038977235583 -0.0385692367 -0.038062722119 -0.037460837514 -0.036765545213 -0.035976199177 -0.035087504492 -0.034086882605 -0.032951950255 
-0.03164970591 -0.030140265061 -0.028388717974 -0.026387202817 -0.02418506721 -0.021918227344 -0.019820105937 -0.018188082211 -0.017277610096 
-0.017124767983 -0.017447120065 -0.012639221877 -0.012741576248 -0.013040698381 -0.013561427495 -0.014306640261 -0.015269165415 -0.016435982764 
-0.017787646964 -0.019298295711 -0.020936560251 -0.022666691255 -0.024450280844 -0.026248120974 -0.028022151425 -0.029737365215 -0.031363182304 
-0.032874730571 -0.034253503733 -0.035487584409 -0.036571260348 -0.037504023026 -0.038289212951 -0.038932395434 -0.039440013932 -0.039818207701 
-0.040072360204 -0.04020685528 -0.040228802034 -0.040140847968 -0.039945341827 -0.039645247669 -0.039244264538 -0.038746735525 -0.038157312172 
-0.037480247592 -0.036718213362 -0.035870342104 -0.034929415782 -0.033878506911 -0.03268829651 -0.03131786381 -0.029723389254 -0.027878687569 
-0.025807254183 -0.02361805139 -0.021527157386 -0.019836624309 -0.018836330507 -0.018616289211 -0.018924884378 -0.013575391602 -0.013653924425 
-0.013930818566 -0.014441738135 -0.015178961047 -0.016132766751 -0.017289285699 -0.018628746732 -0.020125400842 -0.021747812078 -0.023460111067 
-0.025223831078 -0.026999834873 -0.028750407428 -0.030440892859 -0.032041307886 -0.033527463414 -0.034881659686 -0.036092915862 -0.037156368402 
-0.038072238471 -0.038844234616 -0.039478024973 -0.039979735074 -0.040355125717 -0.04060908506 -0.040745612467 -0.04076896562 -0.040685471242 
-0.040493786346 -0.040197170733 -0.039799729326 -0.03930654242 -0.038723425308 -0.038056458761 -0.037311072501 -0.036490453657 -0.035592794564 
-0.034607517981 -0.033511292466 -0.03226600578 -0.030823664907 -0.029143966352 -0.027226493152 -0.025151377104 -0.023110928359 -0.021401783298 
-0.020337886127 -0.020059081301 -0.020351315438 -0.014424511739 -0.014490224328 -0.014740104375 -0.015229329094 -0.01595483982 -0.016894487091 