# vtk DataFile Version 4.1
vtk output
ASCII
DATASET STRUCTURED_GRID
DIMENSIONS 51 51 1
POINTS 2601 float
0 0 0 0.02 0 0 0.04 0 0 
0.06 0 0 0.08 0 0 0.1 0 0 
0.12 0 0 0.14 0 0 0.16 0 0 
0.18 0 0 0.2 0 0 0.22 0 0 
0.24 0 0 0.26 0 0 0.28 0 0 
0.3 0 0 0.32 0 0 0.34 0 0 
0.36 0 0 0.38 0 0 0.4 0 0 
0.42 0 0 0.44 0 0 0.46 0 0 
0.48 0 0 0.5 0 0 0.52 0 0 
0.54 0 0 0.56 0 0 0.58 0 0 
0.6 0 0 0.62 0 0 0.64 0 0 
0.66 0 0 0.68 0 0 0.7 0 0 
0.72 0 0 0.74 0 0 0.76 0 0 
0.78 0 0 0.8 0 0 0.82 0 0 
0.84 0 0 0.86 0 0 0.88 0 0 
0.9 0 0 0.92 0 0 0.94 0 0 
0.96 0 0 0.98 0 0 1 0 0 
0 0.02 0 0.02 0.02 0 0.04 0.02 0 
0.06 0.02 0 0.08 0.02 0 0.1 0.02 0 
0.12 0.02 0 0.14 0.02 0 0.16 0.02 0 
0.18 0.02 0 0.2 0.02 0 0.22 0.02 0 
0.24 0.02 0 0.26 0.02 0 0.28 0.02 0 
0.3 0.02 0 0.32 0.02 0 0.34 0.02 0 
0.36 0.02 0 0.38 0.02 0 0.4 0.02 0 
0.42 0.02 0 0.44 0.02 0 0.46 0.02 0 
0.48 0.02 0 0.5 0.02 0 0.52 0.02 0 
0.54 0.02 0 0.56 0.02 0 0.58 0.02 0 
0.6 0.02 0 0.62 0.02 0 0.64 0.02 0 
0.66 0.02 0 0.68 0.02 0 0.7 0.02 0 
0.72 0.02 0 0.74 0.02 0 0.76 0.02 0 
0.78 0.02 0 0.8 0.02 0 0.82 0.02 0 
0.84 0.02 0 0.86 0.02 0 0.88 0.02 0 
0.9 0.02 0 0.92 0.02 0 0.94 0.02 0 
0.96 0.02 0 0.98 0.02 0 1 0.02 0 
0 0.04 0 0.02 0.04 0 0.04 0.04 0 
0.06 0.04 0 0.08 0.04 0 0.1 0.04 0 
0.12 0.04 0 0.14 0.04 0 0.16 0.04 0 
0.18 0.04 0 0.2 0.04 0 0.22 0.04 0 
0.24 0.04 0 0.26 0.04 0 0.28 0.04 0 
0.3 0.04 0 0.32 0.04 0 0.34 0.04 0 
0.36 0.04 0 0.38 0.04 0 0.4 0.04 0 
0.42 0.04 0 0.44 0.04 0 0.46 0.04 0 
0.48 0.04 0 0.5 0.04 0 0.52 0.04 0 
0.54 0.04 0 0.56 0.04 0 0.58 0.04 0 
0.6 0.04 0 0.62 0.04 0 0.64 0.04 0 
0.66 0.04 0 0.68 0.04 0 0.7 0.04 0 
0.72 0.04 0 0.74 0.04 0 0.76 0.04 0 
0.78 0.04 0 0.8 0.04 0 0.82 0.04 0 
0.84 0.04 0 0.86 0.04 0 0.88 0.04 0 
0.9 0.04 0 0.92 0.04 0 0.94 0.04 0 
0.96 0.04 0 0.98 0.04 0 1 0.04 0 
0 0.06 0 0.02 0.06 0 0.04 0.06 0 
0.06 0.06 0 0.08 0.06 0 0.1 0.06 0 
0.12 0.06 0 0.14 0.06 0 0.16 0.06 0 
0.18 0.06 0 0.2 0.06 0 0.22 0.06 0 
0.24 0.06 0 0.26 0.06 0 0.28 0.06 0 
0.3 0.06 0 0.32 0.06 0 0.34 0.06 0 
0.36 0.06 0 0.38 0.06 0 0.4 0.06 0 
0.42 0.06 0 0.44 0.06 0 0.46 0.06 0 
0.48 0.06 0 0.5 0.06 0 0.52 0.06 0 
0.54 0.06 0 0.56 0.06 0 0.58 0.06 0 
0.6 0.06 0 0.62 0.06 0 0.64 0.06 0 
0.66 0.06 0 0.68 0.06 0 0.7 0.06 0 
0.72 0.06 0 0.74 0.06 0 0.76 0.06 0 
0.78 0.06 0 0.8 0.06 0 0.82 0.06 0 
0.84 0.06 0 0.86 0.06 0 0.88 0.06 0 
0.9 0.06 0 0.92 0.06 0 0.94 0.06 0 
0.96 0.06 0 0.98 0.06 0 1 0.06 0 
0 0.08 0 0.02 0.08 0 0.04 0.08 0 
0.06 0.08 0 0.08 0.08 0 0.1 0.08 0 
0.12 0.08 0 0.14 0.08 0 0.16 0.08 0 
0.18 0.08 0 0.2 0.08 0 0.22 0.08 0 
0.24 0.08 0 0.26 0.08 0 0.28 0.08 0 
0.3 0.08 0 0.32 0.08 0 0.34 0.08 0 
0.36 0.08 0 0.38 0.08 0 0.4 0.08 0 
0.42 0.08 0 0.44 0.08 0 0.46 0.08 0 
0.48 0.08 0 0.5 0.08 0 0.52 0.08 0 
0.54 0.08 0 0.56 0.08 0 0.58 0.08 0 
0.6 0.08 0 0.62 0.08 0 0.64 0.08 0 
0.66 0.08 0 0.68 0.08 0 0.7 0.08 0 
0.72 0.08 0 0.74 0.08 0 0.76 0.08 0 
0.78 0.08 0 0.8 0.08 0 0.82 0.08 0 
0.84 0.08 0 0.86 0.08 0 0.88 0.08 0 
0.9 0.08 0 0.92 0.08 0 0.94 0.08 0 
0.96 0.08 0 0.98 0.08 0 1 0.08 0 
0 0.1 0 0.02 0.1 0 0.04 0.1 0 
0.06 0.1 0 0.08 0.1 0 0.1 0.1 0 
0.12 0.1 0 0.14 0.1 0 0.16 0.1 0 
0.18 0.1 0 0.2 0.1 0 0.22 0.1 0 
0.24 0.1 0 0.26 0.1 0 0.28 0.1 0 
0.3 0.1 0 0.32 0.1 0 0.34 0.1 0 
0.36 0.1 0 0.38 0.1 0 0.4 0.1 0 
0.42 0.1 0 0.44 0.1 0 0.46 0.1 0 
0.48 0.1 0 0.5 0.1 0 0.52 0.1 0 
0.54 0.1 0 0.56 0.1 0 0.58 0.1 0 
0.6 0.1 0 0.62 0.1 0 0.64 0.1 0 
0.66 0.1 0 0.68 0.1 0 0.7 0.1 0 
0.72 0.1 0 0.74 0.1 0 0.76 0.1 0 
0.78 0.1 0 0.8 0.1 0 0.82 0.1 0 
0.84 0.1 0 0.86 0.1 0 0.88 0.1 0 
0.9 0.1 0 0.92 0.1 0 0.94 0.1 0 
0.96 0.1 0 0.98 0.1 0 1 0.1 0 
0 0.12 0 0.02 0.12 0 0.04 0.12 0 
0.06 0.12 0 0.08 0.12 0 0.1 0.12 0 
0.12 0.12 0 0.14 0.12 0 0.16 0.12 0 
0.18 0.12 0 0.2 0.12 0 0.22 0.12 0 
0.24 0.12 0 0.26 0.12 0 0.28 0.12 0 
0.3 0.12 0 0.32 0.12 0 0.34 0.12 0 
0.36 0.12 0 0.38 0.12 0 0.4 0.12 0 
0.42 0.12 0 0.44 0.12 0 0.46 0.12 0 
0.48 0.12 0 0.5 0.12 0 0.52 0.12 0 
0.54 0.12 0 0.56 0.12 0 0.58 0.12 0 
0.6 0.12 0 0.62 0.12 0 0.64 0.12 0 
0.66 0.12 0 0.68 0.12 0 0.7 0.12 0 
0.72 0.12 0 0.74 0.12 0 0.76 0.12 0 
0.78 0.12 0 0.8 0.12 0 0.82 0.12 0 
0.84 0.12 0 0.86 0.12 0 0.88 0.12 0 
0.9 0.12 0 0.92 0.12 0 0.94 0.12 0 
0.96 0.12 0 0.98 0.12 0 1 0.12 0 
0 0.14 0 0.02 0.14 0 0.04 0.14 0 
0.06 0.14 0 0.08 0.14 0 0.1 0.14 0 
0.12 0.14 0 0.14 0.14 0 0.16 0.14 0 
0.18 0.14 0 0.2 0.14 0 0.22 0.14 0 
0.24 0.14 0 0.26 0.14 0 0.28 0.14 0 
0.3 0.14 0 0.32 0.14 0 0.34 0.14 0 
0.36 0.14 0 0.38 0.14 0 0.4 0.14 0 
0.42 0.14 0 0.44 0.14 0 0.46 0.14 0 
0.48 0.14 0 0.5 0.14 0 0.52 0.14 0 
0.54 0.14 0 0.56 0.14 0 0.58 0.14 0 
0.6 0.14 0 0.62 0.14 0 0.64 0.14 0 
0.66 0.14 0 0.68 0.14 0 0.7 0.14 0 
0.72 0.14 0 0.74 0.14 0 0.76 0.14 0 
0.78 0.14 0 0.8 0.14 0 0.82 0.14 0 
0.84 0.14 0 0.86 0.14 0 0.88 0.14 0 
0.9 0.14 0 0.92 0.14 0 0.94 0.14 0 
0.96 0.14 0 0.98 0.14 0 1 0.14 0 
0 0.16 0 0.02 0.16 0 0.04 0.16 0 
0.06 0.16 0 0.08 0.16 0 0.1 0.16 0 
0.12 0.16 0 0.14 0.16 0 0.16 0.16 0 
0.18 0.16 0 0.2 0.16 0 0.22 0.16 0 
0.24 0.16 0 0.26 0.16 0 0.28 0.16 0 
0.3 0.16 0 0.32 0.16 0 0.34 0.16 0 
0.36 0.16 0 0.38 0.16 0 0.4 0.16 0 
0.42 0.16 0 0.44 0.16 0 0.46 0.16 0 
0.48 0.16 0 0.5 0.16 0 0.52 0.16 0 
0.54 0.16 0 0.56 0.16 0 0.58 0.16 0 
0.6 0.16 0 0.62 0.16 0 0.64 0.16 0 
0.66 0.16 0 0.68 0.16 0 0.7 0.16 0 
0.72 0.16 0 0.74 0.16 0 0.76 0.16 0 
0.78 0.16 0 0.8 0.16 0 0.82 0.16 0 
0.84 0.16 0 0.86 0.16 0 0.88 0.16 0 
0.9 0.16 0 0.92 0.16 0 0.94 0.16 0 
0.96 0.16 0 0.98 0.16 0 1 0.16 0 
0 0.18 0 0.02 0.18 0 0.04 0.18 0 
0.06 0.18 0 0.08 0.18 0 0.1 0.18 0 
0.12 0.18 0 0.14 0.18 0 0.16 0.18 0 
0.18 0.18 0 0.2 0.18 0 0.22 0.18 0 
0.24 0.18 0 0.26 0.18 0 0.28 0.18 0 
0.3 0.18 0 0.32 0.18 0 0.34 0.18 0 
0.36 0.18 0 0.38 0.18 0 0.4 0.18 0 
0.42 0.18 0 0.44 0.18 0 0.46 0.18 0 
0.48 0.18 0 0.5 0.18 0 0.52 0.18 0 
0.54 0.18 0 0.56 0.18 0 0.58 0.18 0 
0.6 0.18 0 0.62 0.18 0 0.64 0.18 0 
0.66 0.18 0 0.68 0.18 0 0.7 0.18 0 
0.72 0.18 0 0.74 0.18 0 0.76 0.18 0 
0.78 0.18 0 0.8 0.18 0 0.82 0.18 0 
0.84 0.18 0 0.86 0.18 0 0.88 0.18 0 
0.9 0.18 0 0.92 0.18 0 0.94 0.18 0 
0.96 0.18 0 0.98 0.18 0 1 0.18 0 
0 0.2 0 0.02 0.2 0 0.04 0.2 0 
0.06 0.2 0 0.08 0.2 0 0.1 0.2 0 
0.12 0.2 0 0.14 0.2 0 0.16 0.2 0 
0.18 0.2 0 0.2 0.2 0 0.22 0.2 0 
0.24 0.2 0 0.26 0.2 0 0.28 0.2 0 
0.3 0.2 0 0.32 0.2 0 0.34 0.2 0 
0.36 0.2 0 0.38 0.2 0 0.4 0.2 0 
0.42 0.2 0 0.44 0.2 0 0.46 0.2 0 
0.48 0.2 0 0.5 0.2 0 0.52 0.2 0 
0.54 0.2 0 0.56 0.2 0 0.58 0.2 0 
0.6 0.2 0 0.62 0.2 0 0.64 0.2 0 
0.66 0.2 0 0.68 0.2 0 0.7 0.2 0 
0.72 0.2 0 0.74 0.2 0 0.76 0.2 0 
0.78 0.2 0 0.8 0.2 0 0.82 0.2 0 
0.84 0.2 0 0.86 0.2 0 0.88 0.2 0 
0.9 0.2 0 0.92 0.2 0 0.94 0.2 0 
0.96 0.2 0 0.98 0.2 0 1 0.2 0 
0 0.22 0 0.02 0.22 0 0.04 0.22 0 
0.06 0.22 0 0.08 0.22 0 0.1 0.22 0 
0.12 0.22 0 0.14 0.22 0 0.16 0.22 0 
0.18 0.22 0 0.2 0.22 0 0.22 0.22 0 
0.24 0.22 0 0.26 0.22 0 0.28 0.22 0 
0.3 0.22 0 0.32 0.22 0 0.34 0.22 0 
0.36 0.22 0 0.38 0.22 0 0.4 0.22 0 
0.42 0.22 0 0.44 0.22 0 0.46 0.22 0 
0.48 0.22 0 0.5 0.22 0 0.52 0.22 0 
0.54 0.22 0 0.56 0.22 0 0.58 0.22 0 
0.6 0.22 0 0.62 0.22 0 0.64 0.22 0 
0.66 0.22 0 0.68 0.22 0 0.7 0.22 0 
0.72 0.22 0 0.74 0.22 0 0.76 0.22 0 
0.78 0.22 0 0.8 0.22 0 0.82 0.22 0 
0.84 0.22 0 0.86 0.22 0 0.88 0.22 0 
0.9 0.22 0 0.92 0.22 0 0.94 0.22 0 
0.96 0.22 0 0.98 0.22 0 1 0.22 0 
0 0.24 0 0.02 0.24 0 0.04 0.24 0 
0.06 0.24 0 0.08 0.24 0 0.1 0.24 0 
0.12 0.24 0 0.14 0.24 0 0.16 0.24 0 
0.18 0.24 0 0.2 0.24 0 0.22 0.24 0 
0.24 0.24 0 0.26 0.24 0 0.28 0.24 0 
0.3 0.24 0 0.32 0.24 0 0.34 0.24 0 
0.36 0.24 0 0.38 0.24 0 0.4 0.24 0 
0.42 0.24 0 0.44 0.24 0 0.46 0.24 0 
0.48 0.24 0 0.5 0.24 0 0.52 0.24 0 
0.54 0.24 0 0.56 0.24 0 0.58 0.24 0 
0.6 0.24 0 0.62 0.24 0 0.64 0.24 0 
0.66 0.24 0 0.68 0.24 0 0.7 0.24 0 
0.72 0.24 0 0.74 0.24 0 0.76 0.24 0 
0.78 0.24 0 0.8 0.24 0 0.82 0.24 0 
0.84 0.24 0 0.86 0.24 0 0.88 0.24 0 
0.9 0.24 0 0.92 0.24 0 0.94 0.24 0 
0.96 0.24 0 0.98 0.24 0 1 0.24 0 
0 0.26 0 0.02 0.26 0 0.04 0.26 0 
0.06 0.26 0 0.08 0.26 0 0.1 0.26 0 
0.12 0.26 0 0.14 0.26 0 0.16 0.26 0 
0.18 0.26 0 0.2 0.26 0 0.22 0.26 0 
0.24 0.26 0 0.26 0.26 0 0.28 0.26 0 
0.3 0.26 0 0.32 0.26 0 0.34 0.26 0 
0.36 0.26 0 0.38 0.26 0 0.4 0.26 0 
0.42 0.26 0 0.44 0.26 0 0.46 0.26 0 
0.48 0.26 0 0.5 0.26 0 0.52 0.26 0 
0.54 0.26 0 0.56 0.26 0 0.58 0.26 0 
0.6 0.26 0 0.62 0.26 0 0.64 0.26 0 
0.66 0.26 0 0.68 0.26 0 0.7 0.26 0 
0.72 0.26 0 0.74 0.26 0 0.76 0.26 0 
0.78 0.26 0 0.8 0.26 0 0.82 0.26 0 
0.84 0.26 0 0.86 0.26 0 0.88 0.26 0 
0.9 0.26 0 0.92 0.26 0 0.94 0.26 0 
0.96 0.26 0 0.98 0.26 0 1 0.26 0 
0 0.28 0 0.02 0.28 0 0.04 0.28 0 
0.06 0.28 0 0.08 0.28 0 0.1 0.28 0 
0.12 0.28 0 0.14 0.28 0 0.16 0.28 0 
0.18 0.28 0 0.2 0.28 0 0.22 0.28 0 
0.24 0.28 0 0.26 0.28 0 0.28 0.28 0 
0.3 0.28 0 0.32 0.28 0 0.34 0.28 0 
0.36 0.28 0 0.38 0.28 0 0.4 0.28 0 
0.42 0.28 0 0.44 0.28 0 0.46 0.28 0 
0.48 0.28 0 0.5 0.28 0 0.52 0.28 0 
0.54 0.28 0 0.56 0.28 0 0.58 0.28 0 
0.6 0.28 0 0.62 0.28 0 0.64 0.28 0 
0.66 0.28 0 0.68 0.28 0 0.7 0.28 0 
0.72 0.28 0 0.74 0.28 0 0.76 0.28 0 
0.78 0.28 0 0.8 0.28 0 0.82 0.28 0 
0.84 0.28 0 0.86 0.28 0 0.88 0.28 0 
0.9 0.28 0 0.92 0.28 0 0.94 0.28 0 
0.96 0.28 0 0.98 0.28 0 1 0.28 0 
0 0.3 0 0.02 0.3 0 0.04 0.3 0 
0.06 0.3 0 0.08 0.3 0 0.1 0.3 0 
0.12 0.3 0 0.14 0.3 0 0.16 0.3 0 
0.18 0.3 0 0.2 0.3 0 0.22 0.3 0 
0.24 0.3 0 0.26 0.3 0 0.28 0.3 0 
0.3 0.3 0 0.32 0.3 0 0.34 0.3 0 
0.36 0.3 0 0.38 0.3 0 0.4 0.3 0 
0.42 0.3 0 0.44 0.3 0 0.46 0.3 0 
0.48 0.3 0 0.5 0.3 0 0.52 0.3 0 
0.54 0.3 0 0.56 0.3 0 0.58 0.3 0 
0.6 0.3 0 0.62 0.3 0 0.64 0.3 0 
0.66 0.3 0 0.68 0.3 0 0.7 0.3 0 
0.72 0.3 0 0.74 0.3 0 0.76 0.3 0 
0.78 0.3 0 0.8 0.3 0 0.82 0.3 0 
0.84 0.3 0 0.86 0.3 0 0.88 0.3 0 
0.9 0.3 0 0.92 0.3 0 0.94 0.3 0 
0.96 0.3 0 0.98 0.3 0 1 0.3 0 
0 0.32 0 0.02 0.32 0 0.04 0.32 0 
0.06 0.32 0 0.08 0.32 0 0.1 0.32 0 
0.12 0.32 0 0.14 0.32 0 0.16 0.32 0 
0.18 0.32 0 0.2 0.32 0 0.22 0.32 0 
0.24 0.32 0 0.26 0.32 0 0.28 0.32 0 
0.3 0.32 0 0.32 0.32 0 0.34 0.32 0 
0.36 0.32 0 0.38 0.32 0 0.4 0.32 0 
0.42 0.32 0 0.44 0.32 0 0.46 0.32 0 
0.48 0.32 0 0.5 0.32 0 0.52 0.32 0 
0.54 0.32 0 0.56 0.32 0 0.58 0.32 0 
[...]
CELL_DATA 2500
FIELD FieldData 2
pressure 1 2500 double
-0.0066435430135 -0.0066546442182 -0.0066768604271 -0.0067067287049 -0.0067419861937 -0.0067827075428 -0.0068300923285 -0.0068845023281 -0.0069457717656 
-0.0070132431766 -0.0070853822024 -0.0071605166616 -0.0072372180357 -0.007313869717 -0.0073885984802 -0.0074591138908 -0.0075222412811 -0.0075737945422 
-0.0076086314005 -0.007620665305 -0.0076030514941 -0.0075484878833 -0.0074494969345 -0.0072987556809 -0.007089540209 -0.0068163354399 -0.0064756155033 
-0.0060667611163 -0.0055931148949 -0.0050629871045 -0.0044970490446 -0.0039199968604 -0.0033549718971 -0.002829673804 -0.0023735483462 -0.0020145178258 
-0.001775053141 -0.0016679805783 -0.0016928497508 -0.0018336053068 -0.0020543540276 -0.002319040964 -0.0025894002577 -0.0028347763956 -0.0030359516234 
-0.0031868994948 -0.0032879117779 -0.0033424247554 -0.0033561263187 -0.0033407661336 -0.0066405806938 -0.0066502020597 -0.0066690509359 -0.0066948154006 
-0.0067270650501 -0.0067663667756 -0.0068126056237 -0.0068655629092 -0.0069247829641 -0.0069889622585 -0.0070568808963 -0.0071276194063 -0.007199974512 
-0.0072725983433 -0.0073438649239 -0.0074113631648 -0.0074718769316 -0.0075214107866 -0.007555085217 -0.0075672485166 -0.0075516135002 -0.0075013124719 
-0.0074090579057 -0.0072674629387 -0.0070695363453 -0.0068093515734 -0.0064828396272 -0.0060887090212 -0.0056293397008 -0.0051118236498 -0.0045657327644 
-0.0040054552046 -0.0034554384163 -0.0029431875951 -0.0024975506769 -0.0021457482895 -0.0019095483778 -0.0018011588244 -0.0018195509506 -0.0019485619439 
-0.0021547855808 -0.0023949834709 -0.0026418765344 -0.0028646441883 -0.0030464620087 -0.003182481989 -0.0032741716171 -0.0033256868829 -0.003341571577 
-0.003325664901 -0.0066226187103 -0.0066339019754 -0.0066518352004 -0.0066760654857 -0.006707389043 -0.0067456992963 -0.006790755521 -0.006842338552 
-0.0068993531896 -0.006960880142 -0.0070264706428 -0.0070953573593 -0.0071666597791 -0.0072393614595 -0.0073117402256 -0.0073814133668 -0.0074454257815 
-0.0075000557225 -0.0075408368257 -0.0075625637863 -0.0075591428164 -0.0075235850222 -0.0074482056204 -0.0073249874204 -0.0071461621205 -0.0069049176592 
-0.0065962314779 -0.0062176870877 -0.0057699072667 -0.005268611291 -0.0047327776386 -0.0041790351018 -0.0036315122182 -0.0031177547335 -0.0026668245887 
-0.002306405415 -0.0020590729493 -0.0019381209432 -0.0019436954835 -0.0020603135042 -0.0022570680231 -0.0024930624067 -0.0027273669359 -0.0029391669915 
-0.0031067981319 -0.0032286328376 -0.0033087432501 -0.0033527341296 -0.0033645626509 -0.0033435059058 -0.0065932568636 -0.0066085655487 -0.0066279752596 
-0.0066529689742 -0.0066841497186 -0.0067217522586 -0.0067660196522 -0.006816269097 -0.0068719510769 -0.0069330210147 -0.0069991503882 -0.0070699454381 
-0.0071449462421 -0.0072230558221 -0.0073026580806 -0.007381742313 -0.0074576706654 -0.0075271432042 -0.0075860695601 -0.0076292561751 -0.0076502673669 
-0.0076414886911 -0.0075943559831 -0.0074998276077 -0.0073490766812 -0.0071343048442 -0.0068495859304 -0.0064915650347 -0.0060599714468 -0.0055739134615 
-0.0050456128121 -0.0044933893453 -0.0039407356213 -0.0034150503569 -0.00294571098 -0.0025612816743 -0.0022858883448 -0.0021350897201 -0.0021118964142 
-0.0022039034315 -0.0023830261893 -0.0026095292483 -0.0028404533483 -0.003045472087 -0.0032087565737 -0.0033191743728 -0.0033883472849 -0.0034236970143 
-0.003430216179 -0.0034064888397 -0.0065576688668 -0.0065788894531 -0.0066018096854 -0.0066283105658 -0.0066597354423 -0.0066973087012 -0.0067410836634 
-0.0067910953559 -0.0068478478344 -0.0069114784673 -0.0069820949461 -0.0070598240048 -0.0071441489745 -0.0072341716872 -0.0073287791587 -0.0074263345721 
-0.0075246566174 -0.0076207990764 -0.0077105738914 -0.007788315343 -0.0078468218323 -0.0078774235205 -0.0078703638222 -0.007815464784 -0.0077028927257 
-0.0075239539912 -0.0072718931061 -0.006942620709 -0.0065354449948 -0.0060665044571 -0.0055472895576 -0.0049950154059 -0.0044322716884 -0.0038859997482 
-0.0033856991965 -0.0029608415473 -0.0026374853707 -0.0024343299344 -0.0023587143144 -0.0024034234154 -0.002545541713 -0.0027488411522 -0.0029703589964 
-0.0031706337057 -0.0033323755485 -0.0034407796208 -0.003503971877 -0.003533591692 -0.0035370020643 -0.0035143118404 -0.0065224120921 -0.0065511675403 
-0.0065780010931 -0.0066061357357 -0.0066384983418 -0.0066764665125 -0.0067209333534 -0.0067731934307 -0.0068340331872 -0.0069040945261 -0.0069841321588 
-0.0070742516436 -0.0071742550181 -0.0072839026055 -0.007402526901 -0.0075290450735 -0.0076616868267 -0.0077973886544 -0.007931472012 -0.0080574566848 
-0.0081669824489 -0.0082501117427 -0.0082959175349 -0.0082931512395 -0.008230942659 -0.0080996240305 -0.0078915902524 -0.0076021027343 -0.0072301375193 
-0.0067852742133 -0.0062793176532 -0.0057277441911 -0.0051518149147 -0.0045775741224 -0.0040342582668 -0.003552028376 -0.0031589693505 -0.0028774625957 
-0.0027203329312 -0.0026874102505 -0.0027634578835 -0.0029187719731 -0.0031134819112 -0.0033059549439 -0.0034641700453 -0.0035794574692 -0.0036439665399 
-0.0036741543208 -0.0036790351204 -0.0036609291133 -0.0064954885949 -0.006531803369 -0.006562172368 -0.0065923225316 -0.0066259236741 -0.0066653090315 
-0.0067128560948 -0.006770237021 -0.0068387640903 -0.0069198550785 -0.0070143046377 -0.0071226586213 -0.0072455493963 -0.0073832944177 -0.0075359535669 
-0.0077029959332 -0.0078826216607 -0.0080713639016 -0.0082637711453 -0.0084521963899 -0.0086270230565 -0.0087771239294 -0.0088903658247 -0.0089542433746 
-0.0089566783188 -0.0088868862179 -0.0087362236483 -0.0084991138877 -0.0081740741237 -0.0077630829878 -0.0072765949089 -0.006728354237 -0.0061379868481 
-0.0055301699488 -0.0049333718807 -0.0043780020635 -0.0038939291077 -0.0035073676383 -0.0032373314049 -0.0030921120199 -0.0030663957003 -0.0031401703187 
-0.0032804599045 -0.003446963705 -0.0036018577499 -0.0037213313807 -0.0037972026487 -0.0038374167756 -0.0038499961015 -0.0038397681917 -0.0064846768074 
-0.0065275932406 -0.0065613440313 -0.0065934680673 -0.0066289195938 -0.0066718026687 -0.0067250032041 -0.0067906767648 -0.0068709890988 -0.0069674838694 
-0.0070814772828 -0.0072145058162 -0.0073679182448 -0.0075429853462 -0.0077405221601 -0.0079601651295 -0.0081998845434 -0.0084555792156 -0.0087207281168 
-0.0089865047297 -0.009242077259 -0.0094749474677 -0.0096715037134 -0.0098177716911 -0.0099001978084 -0.0099064970516 -0.0098266833685 -0.0096541942958 
-0.0093869869597 -0.0090202624801 -0.0085604666016 -0.008019676258 -0.0074156474502 -0.0067712415019 -0.0061135493747 -0.0054725725306 -0.0048793974066 
-0.0043637489651 -0.0039509362102 -0.003658453165 -0.0034925766787 -0.0034457912183 -0.0034960270654 -0.0036089593979 -0.0037447791507 -0.0038694060809 
-0.0039643280266 -0.0040196565986 -0.0040464582722 -0.0040472310106 -0.0064972752864 -0.0065459570706 -0.006582584972 -0.0066167512417 -0.0066556667644 
-0.0067042175587 -0.0067657087814 -0.0068431774427 -0.0069389889024 -0.0070552089276 -0.007194275993 -0.0073586107735 -0.0075507514508 -0.0077729618924 
-0.0080265043255 -0.0083110252678 -0.0086241104305 -0.00896077433 -0.009313430677 -0.0096720388621 -0.010024267078 -0.010355940399 -0.010651713369 
-0.010895734959 -0.011072487241 -0.01116794029 -0.01117069682 -0.011073103716 -0.010872365347 -0.01055917748 -0.010133186524 -0.0096049296594 
-0.0089901281578 -0.008309384548 -0.0075877449009 -0.0068540046388 -0.006139595592 -0.0054769035951 -0.004896917582 -0.0044262261065 -0.004083476891 
-0.0038757321416 -0.0037954554978 -0.0038193321649 -0.0039107936697 -0.0040283243614 -0.0041379499689 -0.0042214148635 -0.0042695355124 -0.0042842958571 
-0.0065405047406 -0.0065937952685 -0.0066327227417 -0.0066699522481 -0.0067140607317 -0.0067703519287 -0.0068430281141 -0.0069353701523 -0.0070501686877 
-0.0071906883096 -0.0073603888657 -0.00756306902 -0.0078025009414 -0.0080817151762 -0.0084022736796 -0.0087637825212 -0.0091631828676 -0.0095945951834 
-0.010049287303 -0.010515659601 -0.010979543165 -0.011424766708 -0.011833719533 -0.012188181619 -0.012470573333 -0.012665125516 -0.012758959098 
-0.012743316967 -0.012614593521 -0.012361441944 -0.011975138271 -0.01146479073 -0.010843950535 -0.010130602254 -0.0093471591557 -0.0085203287809 
-0.0076807060344 -0.0068619605228 -0.0060993867377 -0.0054276161599 -0.0048773773336 -0.0044713317531 -0.004219304652 -0.0041138398187 -0.0041280368274 
-0.0042190053308 -0.0043399359052 -0.0044530518859 -0.0045248151466 -0.004556701786 -0.0066207380295 -0.0066771771152 -0.0067186462659 -0.0067601753491 
-0.0068109943738 -0.0068773365896 -0.0069636895307 -0.007073595018 -0.0072110202012 -0.0073803380605 -0.0075864688765 -0.0078346573029 -0.0081297475954 
-0.0084753881166 -0.0088734822509 -0.0093232763606 -0.0098210826855 -0.010360020994 -0.010929830461 -0.01151696713 -0.012105037403 -0.012675276838 
-0.013207373145 -0.013680761149 -0.014075796189 -0.014374930915 -0.014564010704 -0.014633352728 -0.014578459532 -0.014387957223 -0.014044965712 
-0.013557308125 -0.01293641139 -0.012197501122 -0.011359854015 -0.010447134906 -0.0094877069354 -0.0085147221705 -0.0075657140297 -0.0066813602265 
-0.005903029463 -0.0052687338019 -0.004807300759 -0.0045311553132 -0.0044293118918 -0.0044641764206 -0.0045780464499 -0.00470969059 -0.0048194961057 
-0.0048736019892 -0.0067429299205 -0.0068016592288 -0.0068462636208 -0.0068930605834 -0.0069523365635 -0.0070307009764 -0.0071327175587 -0.0072629673273 
-0.0074265393404 -0.0076292081041 -0.0078775012197 -0.0081779652372 -0.0085363727308 -0.0089570743675 -0.0094419565383 -0.0099899857443 -0.010596695517 
-0.01125381607 -0.011949108313 -0.012666659798 -0.013387258888 -0.014089152474 -0.014749381997 -0.015344985466 -0.015854286275 -0.016258359639 
-0.016542078876 -0.016694862011 -0.016711380538 -0.01658155999 -0.016282450511 -0.015820924496 -0.015206564169 -0.014451825556 -0.013572461273 
-0.012588240287 -0.011523840776 -0.010409810636 -0.0092833415832 -0.0081883700071 -0.0071743699179 -0.0062930893271 -0.0055924939653 -0.005107594388 
-0.0048490506988 -0.0047929479423 -0.0048796120318 -0.0050307087562 -0.0051713201428 -0.0052485350464 -0.0069109565157 -0.0069715661484 -0.0070196379225 
-0.0070728556708 -0.007142101033 -0.0072339029117 -0.0073536274629 -0.0075068907717 -0.0076999977733 -0.007940404173 -0.0082360509258 -0.0085946657665 
-0.0090230190028 -0.0095258433666 -0.01010512019 -0.010759345909 -0.011482918059 -0.012265653778 -0.013092948581 -0.013945963446 -0.014802237745 
-0.01563709025 -0.016424844372 -0.017140225804 -0.017760026064 -0.018264248031 -0.018636875696 -0.018866745656 -0.018947999831 -0.018872303908 
-0.018614402848 -0.018180678131 -0.017579219273 -0.016819909546 -0.015914870223 -0.014879308776 -0.013732864783 -0.012501412937 -0.011219024689 
-0.0099295555143 -0.0086870927924 -0.0075541611442 -0.006596358232 -0.0058722982829 -0.0054187327223 -0.0052333256656 -0.0052632301308 -0.0054145818051 
-0.0055837709489 -0.005691072883 -0.0071274130935 -0.0071892765558 -0.0072412153533 -0.007301877141 -0.0073820271698 -0.0074886850393 -0.0076280610155 
-0.0078067197019 -0.0080325728326 -0.0083144831894 -0.0086616945426 -0.0090831505079 -0.0095863972466 -0.010176609543 -0.010855696947 -0.011621362409 
-0.012466301804 -0.013378131688 -0.01433934044 -0.015327658664 -0.016317499667 -0.017281174926 -0.018190354646 -0.019017958343 -0.01973948845 
-0.020333955377 -0.020784977915 -0.021081301759 -0.021216861179 -0.02118499966 -0.020962762413 -0.020556427922 -0.019973104141 -0.019220548238 
-0.018307374187 -0.017243920534 -0.016043893571 -0.014726768445 -0.013320799582 -0.011866174638 -0.01041744052 -0.0090437719047 -0.0078252502208 
-0.0068431545915 -0.0061628637912 -0.005810405301 -0.0057499452291 -0.0058809731195 -0.0060723506375 -0.0062144716748 -0.0073929656812 -0.0074553964245 
-0.0075115545462 -0.0075801225635 -0.007672025805 -0.0077948598211 -0.0079554609146 -0.008161745249 -0.0084229226677 -0.0087490890067 -0.009150847952 
-0.0096382024375 -0.010219436675 -0.010900098489 -0.011681706602 -0.012560634736 -0.013527672504 -0.014567716873 -0.015659801506 -0.016778468365 
-0.01789490521 -0.018978420144 -0.019998505242 -0.020926439605 -0.021736479533 -0.022407262624 -0.022922550409 -0.023271368819 -0.023448181251 
-0.023447754958 -0.023253550964 -0.022872137483 -0.022310215733 -0.021573991961 -0.020669136741 -0.019601455397 -0.018378453682 -0.017012049352 
-0.015522443511 -0.013942744955 -0.012323495828 -0.010735512848 -0.0092687372634 -0.0080241943186 -0.0070962565821 -0.0065444369038 -0.0063602295247 
-0.0064487355602 -0.0066573761737 -0.0068329492778 -0.0077062985332 -0.0077686469538 -0.0078289275878 -0.0079056825269 -0.0080101073763 -0.0081500673447 
-0.0083333284521 -0.0085688879915 -0.0088669447772 -0.0092389789895 -0.0096967643458 -0.010251256985 -0.010911518144 -0.011683147695 -0.012566801618 
-0.013557354433 -0.014643255674 -0.015806125908 -0.017021923173 -0.018261892563 -0.019493944071 -0.020684831368 -0.021802018297 -0.022815100944 
-0.023697692575 -0.0244284755 -0.024991690626 -0.025377500755 -0.02558167581 -0.025600101419 -0.025425280554 -0.025064400427 -0.024524306255 
-0.023810555969 -0.022926948922 -0.021875679745 -0.02065856122 -0.019279706328 -0.017749830116 -0.016092063557 -0.014348591116 -0.012586423755 
-0.01089961574 -0.0094041896454 -0.0082215373448 -0.0074473648527 -0.0071090154904 -0.0071293783246 -0.0073401312178 -0.0075501195302 -0.0080642648167 
-0.0081256552935 -0.0081896997906 -0.0082748588318 -0.0083922569604 -0.0085501384411 -0.0087570099612 -0.0090225120915 -0.0093580477729 -0.0097762241399 
-0.010289833798 -0.010910897289 -0.011648959804 -0.012509214576 -0.013491337361 -0.014588388428 -0.015785934203 -0.017062822268 -0.018391857134 
-0.019740904015 -0.021075069243 -0.02235876405 -0.023557224847 -0.024638931692 -0.02557722502 -0.026351071433 -0.026946003392 -0.027353981453 
-0.027572464486 -0.027598719779 -0.027434625138 -0.027088202427 -0.026567132059 -0.025877439726 -0.025022447659 -0.024002308516 -0.022814563085 
-0.021456252032 -0.019928170869 -0.018241506484 -0.016426355521 -0.014540528644 -0.012675748116 -0.010956767459 -0.0095277131172 -0.0085203771824 
-0.0080039283367 -0.0079308873589 -0.0081275385935 -0.0083687391177 -0.0084619401685 -0.0085212519782 -0.0085886507829 -0.0086822155629 -0.0088128468344 
-0.0089890657118 -0.0092196269481 -0.0095149603247 -0.0098874308184 -0.010350533425 -0.010918248664 -0.011603405403 -0.012415523884 -0.013359377081 
-0.014433417808 -0.015628406613 -0.016927578376 -0.018307040185 -0.019736347347 -0.021180538042 -0.022602229978 -0.023963111379 -0.025226819938 
-0.026361131592 -0.027339175306 -0.028140926161 -0.028753720294 -0.029171435455 -0.029393591153 -0.029419441371 -0.029258172524 -0.028918964798 
-0.028411044668 -0.027742045716 -0.026916486328 -0.025934533407 -0.024791523652 -0.023479135537 -0.021989072601 -0.020319875442 -0.018486834091 
-0.0165337269 -0.014543394704 -0.01264205106 -0.010990269484 -0.009752992797 -0.0090442231914 -0.0088564744154 -0.0090236077642 -0.0092927343267 
-0.0088927405379 -0.0089488905028 -0.0090192077411 -0.0091209773164 -0.0092648168673 -0.0094590809739 -0.009712731598 -0.010036853446 -0.010444426436 
-0.010950031355 -0.011568604204 -0.012313218536 -0.013193427823 -0.014213379532 -0.015369886757 -0.016651913676 -0.018040607176 -0.019509199637 
-0.021024663216 -0.022549623286 -0.024043727995 -0.025466705172 -0.026781096809 -0.027953832185 -0.028958557526 -0.029776693423 -0.030397199184 
-0.030816020173 -0.031034779976 -0.031055000643 -0.030889924962 -0.030550229932 -0.03004727027 -0.02939137916 -0.028589907322 -0.027645129293 
-0.026552703924 -0.025301556166 -0.023876316985 -0.022263564596 -0.020462497984 -0.018499191366 -0.016441566004 -0.014409609412 -0.01257255028 
-0.011122970665 -0.010219493289 -0.009902279911 -0.010026095112 -0.010317611173 -0.0093488989467 -0.0094010762486 -0.009473749305 -0.0095833080278 
-0.0097398168025 -0.0099512127982 -0.010226630278 -0.010577445205 -0.011017369096 -0.011561891761 -0.012226310869 -0.013023964372 -0.013964303818 
-0.015050429858 -0.016277949905 -0.017634492136 -0.019098928036 -0.020642375673 -0.022229717026 -0.023820723902 -0.025372925961 -0.026844725558 
-0.028197269777 -0.029397494767 -0.030419980306 -0.031247217969 -0.031869787914 -0.03228544516 -0.032497293589 -0.032509302458 -0.032335395148 
-0.031987893343 -0.031480702846 -0.030827685995 -0.030040287143 -0.02912480709 -0.028079804839 -0.026894461365 -0.025549316065 -0.024021184647 
-0.022293617485 -0.020372874166 -0.018307007349 -0.016202383067 -0.014228259724 -0.012597204666 -0.011508960191 -0.011055434089 -0.011124216137 
-0.011429875921 -0.0098221303023 -0.0098696289121 -0.0099439504936 -0.010060582633 -0.010228670774 -0.01045571827 -0.010750797111 -0.011125498968 
-0.011594187312 -0.012172677584 -0.012876517417 -0.013719261618 -0.014709771595 -0.015850467084 -0.017136317839 -0.018553427972 -0.020079128097 
-0.021683022302 -0.023327592935 -0.024970583981 -0.026568218134 -0.02807721995 -0.029458335978 -0.030678975916 -0.031714222377 -0.032547559976 
-0.033170854128 -0.033582715611 -0.0337871895 -0.033790479449 -0.033604390051 -0.033242904979 -0.032722753664 -0.032061740243 -0.031276193499 
-0.030377789776 -0.029370084167 -0.028245481477 -0.026984056537 -0.025556314578 -0.023932293304 -0.022098224383 -0.020079029471 -0.017961042312 
-0.015904802973 -0.014133691958 -0.012882108633 -0.012293987114 -0.012299363696 -0.012610959877 -0.010303926302 -0.010346059217 -0.010421246509 
-0.010543802362 -0.01072189231 -0.010962574233 -0.011274618698 -0.011669812146 -0.012162687648 -0.012769103251 -0.013504834486 -0.014383144928 
-0.015412518613 -0.016595272348 -0.017925600901 -0.019388641111 -0.020960952506 -0.022610413551 -0.024297847917 -0.02597995446 -0.027611387668 
-0.029148216677 -0.030551400578 -0.031788412764 -0.032834729222 -0.033674744615 -0.034300433526 -0.034710482898 -0.03490921338 -0.034904585942 
-0.034704472058 -0.034324599327 -0.033784502545 -0.033105961572 -0.03231040107 -0.031415489771 -0.030431127177 -0.029355389572 -0.028171448916 
-0.026847690788 -0.025344351463 -0.023629459 -0.021703569646 -0.019628152286 -0.01754696868 -0.01568436582 -0.014300586125 -0.013588191086 
-0.013526102347 -0.013836236018 -0.01078585176 -0.010822102648 -0.010897128977 -0.011024009014 -0.011210171377 -0.011461993509 -0.011787884716 
-0.012199524149 -0.012711196872 -0.013338710294 -0.014097650861 -0.01500095283 -0.016057249374 -0.017268671265 -0.01862894813 -0.020123134558 
-0.021726871421 -0.023406925377 -0.025123549916 -0.026832362945 -0.028487339912 -0.030044757048 -0.031465393193 -0.032716744372 -0.033774948433 
-0.034623984322 -0.035255356357 -0.035667035462 -0.035862518065 -0.035851300528 -0.035636732162 -0.035236142391 -0.034671682327 -0.033968847564 
-0.033153911242 -0.032250422104 -0.031275087721 -0.030233126357 -0.029113712596 -0.027887443964 -0.026509520828 -0.024933377243 -0.02313617454 
-0.021151835259 -0.019100735694 -0.017198526735 -0.015720965234 -0.014902598468 -0.014773959008 -0.015076782761 -0.011260189615 -0.011289885033 
-0.011363343621 -0.01149274593 -0.011684735744 -0.011944882695 -0.012281111016 -0.012704570338 -0.013229059579 -0.013870080588 -0.014642770852 
-0.01556010871 -0.016630858083 -0.017857019115 -0.01923267871 -0.020742771257 -0.022362393249 -0.024058353998 -0.025790555381 -0.027514228418 
-0.029183772901 -0.030755356258 -0.0321896839 -0.033454704462 -0.034525981323 -0.035386821913 -0.036027508286 -0.036444337297 -0.03663898398 
-0.036622802882 -0.036394478869 -0.035972867835 -0.035382531286 -0.034652306395 -0.033812541521 -0.032891989412 -0.031913872553 -0.030890944588 
-0.029820165657 -0.028678049912 -0.027419856235 -0.025989403023 -0.024343598436 -0.02248853354 -0.020516619727 -0.018626199119 -0.017097651446 