# vtk DataFile Version 4.1
vtk output
ASCII
DATASET STRUCTURED_GRID
DIMENSIONS 51 51 1
POINTS 2601 float
0 0 0 0.02 0 0 0.04 0 0 
0.06 0 0 0.08 0 0 0.1 0 0 
0.12 0 0 0.14 0 0 0.16 0 0 
0.18 0 0 0.2 0 0 0.22 0 0 
0.24 0 0 0.26 0 0 0.28 0 0 
0.3 0 0 0.32 0 0 0.34 0 0 
0.36 0 0 0.38 0 0 0.4 0 0 
0.42 0 0 0.44 0 0 0.46 0 0 
0.48 0 0 0.5 0 0 0.52 0 0 
0.54 0 0 0.56 0 0 0.58 0 0 
0.6 0 0 0.62 0 0 0.64 0 0 
0.66 0 0 0.68 0 0 0.7 0 0 
0.72 0 0 0.74 0 0 0.76 0 0 
0.78 0 0 0.8 0 0 0.82 0 0 
0.84 0 0 0.86 0 0 0.88 0 0 
0.9 0 0 0.92 0 0 0.94 0 0 
0.96 0 0 0.98 0 0 1 0 0 
0 0.02 0 0.02 0.02 0 0.04 0.02 0 
0.06 0.02 0 0.08 0.02 0 0.1 0.02 0 
0.12 0.02 0 0.14 0.02 0 0.16 0.02 0 
0.18 0.02 0 0.2 0.02 0 0.22 0.02 0 
0.24 0.02 0 0.26 0.02 0 0.28 0.02 0 
0.3 0.02 0 0.32 0.02 0 0.34 0.02 0 
0.36 0.02 0 0.38 0.02 0 0.4 0.02 0 
0.42 0.02 0 0.44 0.02 0 0.46 0.02 0 
0.48 0.02 0 0.5 0.02 0 0.52 0.02 0 
0.54 0.02 0 0.56 0.02 0 0.58 0.02 0 
0.6 0.02 0 0.62 0.02 0 0.64 0.02 0 
0.66 0.02 0 0.68 0.02 0 0.7 0.02 0 
0.72 0.02 0 0.74 0.02 0 0.76 0.02 0 
0.78 0.02 0 0.8 0.02 0 0.82 0.02 0 
0.84 0.02 0 0.86 0.02 0 0.88 0.02 0 
0.9 0.02 0 0.92 0.02 0 0.94 0.02 0 
0.96 0.02 0 0.98 0.02 0 1 0.02 0 
0 0.04 0 0.02 0.04 0 0.04 0.04 0 
0.06 0.04 0 0.08 0.04 0 0.1 0.04 0 
0.12 0.04 0 0.14 0.04 0 0.16 0.04 0 
0.18 0.04 0 0.2 0.04 0 0.22 0.04 0 
0.24 0.04 0 0.26 0.04 0 0.28 0.04 0 
0.3 0.04 0 0.32 0.04 0 0.34 0.04 0 
0.36 0.04 0 0.38 0.04 0 0.4 0.04 0 
0.42 0.04 0 0.44 0.04 0 0.46 0.04 0 
0.48 0.04 0 0.5 0.04 0 0.52 0.04 0 
0.54 0.04 0 0.56 0.04 0 0.58 0.04 0 
0.6 0.04 0 0.62 0.04 0 0.64 0.04 0 
0.66 0.04 0 0.68 0.04 0 0.7 0.04 0 
0.72 0.04 0 0.74 0.04 0 0.76 0.04 0 
0.78 0.04 0 0.8 0.04 0 0.82 0.04 0 
0.84 0.04 0 0.86 0.04 0 0.88 0.04 0 
0.9 0.04 0 0.92 0.04 0 0.94 0.04 0 
0.96 0.04 0 0.98 0.04 0 1 0.04 0 
0 0.06 0 0.02 0.06 0 0.04 0.06 0 
0.06 0.06 0 0.08 0.06 0 0.1 0.06 0 
0.12 0.06 0 0.14 0.06 0 0.16 0.06 0 
0.18 0.06 0 0.2 0.06 0 0.22 0.06 0 
0.24 0.06 0 0.26 0.06 0 0.28 0.06 0 
0.3 0.06 0 0.32 0.06 0 0.34 0.06 0 
0.36 0.06 0 0.38 0.06 0 0.4 0.06 0 
0.42 0.06 0 0.44 0.06 0 0.46 0.06 0 
0.48 0.06 0 0.5 0.06 0 0.52 0.06 0 
0.54 0.06 0 0.56 0.06 0 0.58 0.06 0 
0.6 0.06 0 0.62 0.06 0 0.64 0.06 0 
0.66 0.06 0 0.68 0.06 0 0.7 0.06 0 
0.72 0.06 0 0.74 0.06 0 0.76 0.06 0 
0.78 0.06 0 0.8 0.06 0 0.82 0.06 0 
0.84 0.06 0 0.86 0.06 0 0.88 0.06 0 
0.9 0.06 0 0.92 0.06 0 0.94 0.06 0 
0.96 0.06 0 0.98 0.06 0 1 0.06 0 
0 0.08 0 0.02 0.08 0 0.04 0.08 0 
0.06 0.08 0 0.08 0.08 0 0.1 0.08 0 
0.12 0.08 0 0.14 0.08 0 0.16 0.08 0 
0.18 0.08 0 0.2 0.08 0 0.22 0.08 0 
0.24 0.08 0 0.26 0.08 0 0.28 0.08 0 
0.3 0.08 0 0.32 0.08 0 0.34 0.08 0 
0.36 0.08 0 0.38 0.08 0 0.4 0.08 0 
0.42 0.08 0 0.44 0.08 0 0.46 0.08 0 
0.48 0.08 0 0.5 0.08 0 0.52 0.08 0 
0.54 0.08 0 0.56 0.08 0 0.58 0.08 0 
0.6 0.08 0 0.62 0.08 0 0.64 0.08 0 
0.66 0.08 0 0.68 0.08 0 0.7 0.08 0 
0.72 0.08 0 0.74 0.08 0 0.76 0.08 0 
0.78 0.08 0 0.8 0.08 0 0.82 0.08 0 
0.84 0.08 0 0.86 0.08 0 0.88 0.08 0 
0.9 0.08 0 0.92 0.08 0 0.94 0.08 0 
0.96 0.08 0 0.98 0.08 0 1 0.08 0 
0 0.1 0 0.02 0.1 0 0.04 0.1 0 
0.06 0.1 0 0.08 0.1 0 0.1 0.1 0 
0.12 0.1 0 0.14 0.1 0 0.16 0.1 0 
0.18 0.1 0 0.2 0.1 0 0.22 0.1 0 
0.24 0.1 0 0.26 0.1 0 0.28 0.1 0 
0.3 0.1 0 0.32 0.1 0 0.34 0.1 0 
0.36 0.1 0 0.38 0.1 0 0.4 0.1 0 
0.42 0.1 0 0.44 0.1 0 0.46 0.1 0 
0.48 0.1 0 0.5 0.1 0 0.52 0.1 0 
0.54 0.1 0 0.56 0.1 0 0.58 0.1 0 
0.6 0.1 0 0.62 0.1 0 0.64 0.1 0 
0.66 0.1 0 0.68 0.1 0 0.7 0.1 0 
0.72 0.1 0 0.74 0.1 0 0.76 0.1 0 
0.78 0.1 0 0.8 0.1 0 0.82 0.1 0 
0.84 0.1 0 0.86 0.1 0 0.88 0.1 0 
0.9 0.1 0 0.92 0.1 0 0.94 0.1 0 
0.96 0.1 0 0.98 0.1 0 1 0.1 0 
0 0.12 0 0.02 0.12 0 0.04 0.12 0 
0.06 0.12 0 0.08 0.12 0 0.1 0.12 0 
0.12 0.12 0 0.14 0.12 0 0.16 0.12 0 
0.18 0.12 0 0.2 0.12 0 0.22 0.12 0 
0.24 0.12 0 0.26 0.12 0 0.28 0.12 0 
0.3 0.12 0 0.32 0.12 0 0.34 0.12 0 
0.36 0.12 0 0.38 0.12 0 0.4 0.12 0 
0.42 0.12 0 0.44 0.12 0 0.46 0.12 0 
0.48 0.12 0 0.5 0.12 0 0.52 0.12 0 
0.54 0.12 0 0.56 0.12 0 0.58 0.12 0 
0.6 0.12 0 0.62 0.12 0 0.64 0.12 0 
0.66 0.12 0 0.68 0.12 0 0.7 0.12 0 
0.72 0.12 0 0.74 0.12 0 0.76 0.12 0 
0.78 0.12 0 0.8 0.12 0 0.82 0.12 0 
0.84 0.12 0 0.86 0.12 0 0.88 0.12 0 
0.9 0.12 0 0.92 0.12 0 0.94 0.12 0 
0.96 0.12 0 0.98 0.12 0 1 0.12 0 
0 0.14 0 0.02 0.14 0 0.04 0.14 0 
0.06 0.14 0 0.08 0.14 0 0.1 0.14 0 
0.12 0.14 0 0.14 0.14 0 0.16 0.14 0 
0.18 0.14 0 0.2 0.14 0 0.22 0.14 0 
0.24 0.14 0 0.26 0.14 0 0.28 0.14 0 
0.3 0.14 0 0.32 0.14 0 0.34 0.14 0 
0.36 0.14 0 0.38 0.14 0 0.4 0.14 0 
0.42 0.14 0 0.44 0.14 0 0.46 0.14 0 
0.48 0.14 0 0.5 0.14 0 0.52 0.14 0 
0.54 0.14 0 0.56 0.14 0 0.58 0.14 0 
0.6 0.14 0 0.62 0.14 0 0.64 0.14 0 
0.66 0.14 0 0.68 0.14 0 0.7 0.14 0 
0.72 0.14 0 0.74 0.14 0 0.76 0.14 0 
0.78 0.14 0 0.8 0.14 0 0.82 0.14 0 
0.84 0.14 0 0.86 0.14 0 0.88 0.14 0 
0.9 0.14 0 0.92 0.14 0 0.94 0.14 0 
0.96 0.14 0 0.98 0.14 0 1 0.14 0 
0 0.16 0 0.02 0.16 0 0.04 0.16 0 
0.06 0.16 0 0.08 0.16 0 0.1 0.16 0 
0.12 0.16 0 0.14 0.16 0 0.16 0.16 0 
0.18 0.16 0 0.2 0.16 0 0.22 0.16 0 
0.24 0.16 0 0.26 0.16 0 0.28 0.16 0 
0.3 0.16 0 0.32 0.16 0 0.34 0.16 0 
0.36 0.16 0 0.38 0.16 0 0.4 0.16 0 
0.42 0.16 0 0.44 0.16 0 0.46 0.16 0 
0.48 0.16 0 0.5 0.16 0 0.52 0.16 0 
0.54 0.16 0 0.56 0.16 0 0.58 0.16 0 
0.6 0.16 0 0.62 0.16 0 0.64 0.16 0 
0.66 0.16 0 0.68 0.16 0 0.7 0.16 0 
0.72 0.16 0 0.74 0.16 0 0.76 0.16 0 
0.78 0.16 0 0.8 0.16 0 0.82 0.16 0 
0.84 0.16 0 0.86 0.16 0 0.88 0.16 0 
0.9 0.16 0 0.92 0.16 0 0.94 0.16 0 
0.96 0.16 0 0.98 0.16 0 1 0.16 0 
0 0.18 0 0.02 0.18 0 0.04 0.18 0 
0.06 0.18 0 0.08 0.18 0 0.1 0.18 0 
0.12 0.18 0 0.14 0.18 0 0.16 0.18 0 
0.18 0.18 0 0.2 0.18 0 0.22 0.18 0 
0.24 0.18 0 0.26 0.18 0 0.28 0.18 0 
0.3 0.18 0 0.32 0.18 0 0.34 0.18 0 
0.36 0.18 0 0.38 0.18 0 0.4 0.18 0 
0.42 0.18 0 0.44 0.18 0 0.46 0.18 0 
0.48 0.18 0 0.5 0.18 0 0.52 0.18 0 
0.54 0.18 0 0.56 0.18 0 0.58 0.18 0 
0.6 0.18 0 0.62 0.18 0 0.64 0.18 0 
0.66 0.18 0 0.68 0.18 0 0.7 0.18 0 
0.72 0.18 0 0.74 0.18 0 0.76 0.18 0 
0.78 0.18 0 0.8 0.18 0 0.82 0.18 0 
0.84 0.18 0 0.86 0.18 0 0.88 0.18 0 
0.9 0.18 0 0.92 0.18 0 0.94 0.18 0 
0.96 0.18 0 0.98 0.18 0 1 0.18 0 
0 0.2 0 0.02 0.2 0 0.04 0.2 0 
0.06 0.2 0 0.08 0.2 0 0.1 0.2 0 
0.12 0.2 0 0.14 0.2 0 0.16 0.2 0 
0.18 0.2 0 0.2 0.2 0 0.22 0.2 0 
0.24 0.2 0 0.26 0.2 0 0.28 0.2 0 
0.3 0.2 0 0.32 0.2 0 0.34 0.2 0 
0.36 0.2 0 0.38 0.2 0 0.4 0.2 0 
0.42 0.2 0 0.44 0.2 0 0.46 0.2 0 
0.48 0.2 0 0.5 0.2 0 0.52 0.2 0 
0.54 0.2 0 0.56 0.2 0 0.58 0.2 0 
0.6 0.2 0 0.62 0.2 0 0.64 0.2 0 
0.66 0.2 0 0.68 0.2 0 0.7 0.2 0 
0.72 0.2 0 0.74 0.2 0 0.76 0.2 0 
0.78 0.2 0 0.8 0.2 0 0.82 0.2 0 
0.84 0.2 0 0.86 0.2 0 0.88 0.2 0 
0.9 0.2 0 0.92 0.2 0 0.94 0.2 0 
0.96 0.2 0 0.98 0.2 0 1 0.2 0 
0 0.22 0 0.02 0.22 0 0.04 0.22 0 
0.06 0.22 0 0.08 0.22 0 0.1 0.22 0 
0.12 0.22 0 0.14 0.22 0 0.16 0.22 0 
0.18 0.22 0 0.2 0.22 0 0.22 0.22 0 
0.24 0.22 0 0.26 0.22 0 0.28 0.22 0 
0.3 0.22 0 0.32 0.22 0 0.34 0.22 0 
0.36 0.22 0 0.38 0.22 0 0.4 0.22 0 
0.42 0.22 0 0.44 0.22 0 0.46 0.22 0 
0.48 0.22 0 0.5 0.22 0 0.52 0.22 0 
0.54 0.22 0 0.56 0.22 0 0.58 0.22 0 
0.6 0.22 0 0.62 0.22 0 0.64 0.22 0 
0.66 0.22 0 0.68 0.22 0 0.7 0.22 0 
0.72 0.22 0 0.74 0.22 0 0.76 0.22 0 
0.78 0.22 0 0.8 0.22 0 0.82 0.22 0 
0.84 0.22 0 0.86 0.22 0 0.88 0.22 0 
0.9 0.22 0 0.92 0.22 0 0.94 0.22 0 
0.96 0.22 0 0.98 0.22 0 1 0.22 0 
0 0.24 0 0.02 0.24 0 0.04 0.24 0 
0.06 0.24 0 0.08 0.24 0 0.1 0.24 0 
0.12 0.24 0 0.14 0.24 0 0.16 0.24 0 
0.18 0.24 0 0.2 0.24 0 0.22 0.24 0 
0.24 0.24 0 0.26 0.24 0 0.28 0.24 0 
0.3 0.24 0 0.32 0.24 0 0.34 0.24 0 
0.36 0.24 0 0.38 0.24 0 0.4 0.24 0 
0.42 0.24 0 0.44 0.24 0 0.46 0.24 0 
0.48 0.24 0 0.5 0.24 0 0.52 0.24 0 
0.54 0.24 0 0.56 0.24 0 0.58 0.24 0 
0.6 0.24 0 0.62 0.24 0 0.64 0.24 0 
0.66 0.24 0 0.68 0.24 0 0.7 0.24 0 
0.72 0.24 0 0.74 0.24 0 0.76 0.24 0 
0.78 0.24 0 0.8 0.24 0 0.82 0.24 0 
0.84 0.24 0 0.86 0.24 0 0.88 0.24 0 
0.9 0.24 0 0.92 0.24 0 0.94 0.24 0 
0.96 0.24 0 0.98 0.24 0 1 0.24 0 
0 0.26 0 0.02 0.26 0 0.04 0.26 0 
0.06 0.26 0 0.08 0.26 0 0.1 0.26 0 
0.12 0.26 0 0.14 0.26 0 0.16 0.26 0 
0.18 0.26 0 0.2 0.26 0 0.22 0.26 0 
0.24 0.26 0 0.26 0.26 0 0.28 0.26 0 
0.3 0.26 0 0.32 0.26 0 0.34 0.26 0 
0.36 0.26 0 0.38 0.26 0 0.4 0.26 0 
0.42 0.26 0 0.44 0.26 0 0.46 0.26 0 
0.48 0.26 0 0.5 0.26 0 0.52 0.26 0 
0.54 0.26 0 0.56 0.26 0 0.58 0.26 0 
0.6 0.26 0 0.62 0.26 0 0.64 0.26 0 
0.66 0.26 0 0.68 0.26 0 0.7 0.26 0 
0.72 0.26 0 0.74 0.26 0 0.76 0.26 0 
0.78 0.26 0 0.8 0.26 0 0.82 0.26 0 
0.84 0.26 0 0.86 0.26 0 0.88 0.26 0 
0.9 0.26 0 0.92 0.26 0 0.94 0.26 0 
0.96 0.26 0 0.98 0.26 0 1 0.26 0 
0 0.28 0 0.02 0.28 0 0.04 0.28 0 
0.06 0.28 0 0.08 0.28 0 0.1 0.28 0 
0.12 0.28 0 0.14 0.28 0 0.16 0.28 0 
0.18 0.28 0 0.2 0.28 0 0.22 0.28 0 
0.24 0.28 0 0.26 0.28 0 0.28 0.28 0 
0.3 0.28 0 0.32 0.28 0 0.34 0.28 0 
0.36 0.28 0 0.38 0.28 0 0.4 0.28 0 
0.42 0.28 0 0.44 0.28 0 0.46 0.28 0 
0.48 0.28 0 0.5 0.28 0 0.52 0.28 0 
0.54 0.28 0 0.56 0.28 0 0.58 0.28 0 
0.6 0.28 0 0.62 0.28 0 0.64 0.28 0 
0.66 0.28 0 0.68 0.28 0 0.7 0.28 0 
0.72 0.28 0 0.74 0.28 0 0.76 0.28 0 
0.78 0.28 0 0.8 0.28 0 0.82 0.28 0 
0.84 0.28 0 0.86 0.28 0 0.88 0.28 0 
0.9 0.28 0 0.92 0.28 0 0.94 0.28 0 
0.96 0.28 0 0.98 0.28 0 1 0.28 0 
0 0.3 0 0.02 0.3 0 0.04 0.3 0 
0.06 0.3 0 0.08 0.3 0 0.1 0.3 0 
0.12 0.3 0 0.14 0.3 0 0.16 0.3 0 
0.18 0.3 0 0.2 0.3 0 0.22 0.3 0 
0.24 0.3 0 0.26 0.3 0 0.28 0.3 0 
0.3 0.3 0 0.32 0.3 0 0.34 0.3 0 
0.36 0.3 0 0.38 0.3 0 0.4 0.3 0 
0.42 0.3 0 0.44 0.3 0 0.46 0.3 0 
0.48 0.3 0 0.5 0.3 0 0.52 0.3 0 
0.54 0.3 0 0.56 0.3 0 0.58 0.3 0 
0.6 0.3 0 0.62 0.3 0 0.64 0.3 0 
0.66 0.3 0 0.68 0.3 0 0.7 0.3 0 
0.72 0.3 0 0.74 0.3 0 0.76 0.3 0 
0.78 0.3 0 0.8 0.3 0 0.82 0.3 0 
0.84 0.3 0 0.86 0.3 0 0.88 0.3 0 
0.9 0.3 0 0.92 0.3 0 0.94 0.3 0 
0.96 0.3 0 0.98 0.3 0 1 0.3 0 
0 0.32 0 0.02 0.32 0 0.04 0.32 0 
0.06 0.32 0 0.08 0.32 0 0.1 0.32 0 
0.12 0.32 0 0.14 0.32 0 0.16 0.32 0 
0.18 0.32 0 0.2 0.32 0 0.22 0.32 0 
0.24 0.32 0 0.26 0.32 0 0.28 0.32 0 
0.3 0.32 0 0.32 0.32 0 0.34 0.32 0 
0.36 0.32 0 0.38 0.32 0 0.4 0.32 0 
0.42 0.32 0 0.44 0.32 0 0.46 0.32 0 
0.48 0.32 0 0.5 0.32 0 0.52 0.32 0 
0.54 0.32 0 0.56 0.32 0 0.58 0.32 0 
[...]
CELL_DATA 2500
FIELD FieldData 2
pressure 1 2500 double
-0.0056762375554 -0.005669364237 -0.005697036495 -0.0057630085035 -0.0058601593876 -0.0059802201527 -0.0061190054214 -0.0062764179129 -0.0064551876561 
-0.0066580970204 -0.0068880892071 -0.0071457887569 -0.0074291406387 -0.0077372511386 -0.0080654103035 -0.0084074128759 -0.0087542365048 -0.0090937150092 
-0.0094107440315 -0.0096878675176 -0.0099060681151 -0.010045616845 -0.010086948861 -0.010011591708 -0.0098031738518 -0.0094485425304 -0.0089389906774 
-0.0082715712525 -0.0074505472749 -0.0064890492489 -0.0054136154539 -0.0042833796819 -0.0031408704837 -0.0020407416136 -0.0010449565323 -0.00021783985 
0.00038074417341 0.0007041469062 0.00072887374543 0.00046419194709 -1.4142167231e-05 -0.00062540920674 -0.001272514118 -0.0018613255616 -0.0023278022599 
-0.0026577395598 -0.0028626309181 -0.0029625846626 -0.0029787508956 -0.0029386501464 -0.0056921193598 -0.0056845806477 -0.0057118771223 -0.0057728273163 
-0.0058616284103 -0.0059720606749 -0.0061012429011 -0.0062486183232 -0.0064167285693 -0.0066061254465 -0.0068211983394 -0.0070636267139 -0.0073324201011 
-0.0076272657462 -0.0079451942035 -0.008280534274 -0.008624511276 -0.0089651838757 -0.0092877164645 -0.0095748605438 -0.0098075828802 -0.0099658346297 
-0.010029460139 -0.009979232448 -0.0097979898492 -0.0094718217737 -0.0089912230835 -0.0083521728452 -0.0075570871885 -0.0066160503916 -0.0055924984933 
-0.0044992113429 -0.0033877275964 -0.0023145122099 -0.0013413225929 -0.00053149644723 5.6487378201e-05 0.00037767443086 0.00041082834065 0.0001688008013 
-0.00029402135597 -0.00084956428436 -0.0014397746817 -0.0019711754247 -0.0023825817791 -0.0026660496542 -0.0028385814002 -0.0029237920458 -0.0029413860933 
-0.0029002485567 -0.0056751809438 -0.005665440652 -0.0056939316442 -0.0057557701141 -0.0058431925016 -0.0059485921778 -0.0060706328337 -0.0062056094502 
-0.0063602758587 -0.006536988603 -0.0067397985414 -0.0069725176953 -0.0072370975585 -0.0075338016317 -0.0078601189943 -0.0082103210876 -0.0085753315196 
-0.0089428063361 -0.0092973620314 -0.0096209490562 -0.0098934572006 -0.010093573107 -0.010199837769 -0.01019184006 -0.01005143656 -0.0097638895574 
-0.0093188533459 -0.0087110250781 -0.0079396199423 -0.0070534462667 -0.00605706408 -0.0049860543585 -0.0038891546734 -0.0028224684873 -0.0018474444407 
-0.0010270350374 -0.00041954642181 -7.024551886e-05 -1.2724473622e-06 -0.00020122711403 -0.00061729437896 -0.0011549294656 -0.0017048729368 -0.0022036071869 
-0.0025748980888 -0.002806217038 -0.002934451284 -0.0029885665932 -0.0029899909053 -0.0029393733054 -0.005613558857 -0.005608247063 -0.0056439703173 
-0.005712845261 -0.0058041628048 -0.0059083649619 -0.0060239682308 -0.0061507926325 -0.0062962994464 -0.0064670235779 -0.0066697616092 -0.0069102958338 
-0.0071920107953 -0.007515316323 -0.0078772163251 -0.0082711120659 -0.008686773056 -0.0091104384493 -0.0095250258334 -0.0099106070411 -0.010245208377 
-0.010505863521 -0.010669846294 -0.010715929934 -0.010625551269 -0.010383861329 -0.0099806950755 -0.009411595621 -0.0086842068198 -0.0078338081832 
-0.0068623011514 -0.0058078063033 -0.0047170125053 -0.003644289881 -0.0026496000934 -0.0017947961753 -0.0011378771162 -0.00072511478585 -0.00058152131293 
-0.00070107881216 -0.0010397169359 -0.0015161402046 -0.0020265979327 -0.0024877722593 -0.0028398707808 -0.0030361867327 -0.0031257752006 -0.0031482224777 
-0.0031313690939 -0.0030790318117 -0.0055025707433 -0.0055102820953 -0.0055603071312 -0.005640591628 -0.0057386736524 -0.0058461598352 -0.0059611182461 
-0.0060887575495 -0.0062387380287 -0.006421614014 -0.0066468696512 -0.0069214896309 -0.0072489548962 -0.0076288308115 -0.0080566727041 -0.008524000199 
-0.0090183856661 -0.0095236044104 -0.010020062439 -0.010485560187 -0.010896313918 -0.011228184356 -0.011457929411 -0.011564349026 -0.011529324467 
-0.011338763937 -0.010983433667 -0.010459507424 -0.0097880112538 -0.0089681018107 -0.0080215285565 -0.0069819954955 -0.005892683055 -0.0048047469 
-0.0037752752451 -0.0028639429994 -0.002127871876 -0.0016145404562 -0.0013531420937 -0.0013457004028 -0.0015605715325 -0.0019323255411 -0.0023718741997 
-0.0027868946582 -0.0030965895 -0.0032922693554 -0.0033632587884 -0.003369776998 -0.0033452542373 -0.0033010428966 -0.0053422609527 -0.0053714625669 
-0.0054400303866 -0.0055341259688 -0.0056445491096 -0.005761212629 -0.0058872177625 -0.0060320514134 -0.0062086311246 -0.0064300006885 -0.006706788056 
-0.0070457741354 -0.0074492840039 -0.0079150604138 -0.0084362986091 -0.0090018187738 -0.0095962347013 -0.010200416924 -0.010792266543 -0.01134771497 
-0.011841921725 -0.012250470651 -0.012550457298 -0.012721479007 -0.012746559219 -0.012613040619 -0.012313491872 -0.01184671672 -0.011225025692 
-0.010444161355 -0.0095267776045 -0.0085036776602 -0.0074140251813 -0.0063046451682 -0.0052285018688 -0.0042419742879 -0.0034005428726 -0.0027527278892 
-0.0023325745734 -0.0021517327963 -0.0021931680959 -0.0024093852507 -0.0027278032688 -0.0030638470433 -0.0033401896 -0.0035159203374 -0.0035998875699 
-0.0036170781005 -0.0036020865014 -0.0035741846677 -0.0051390863699 -0.005196428987 -0.0052861006119 -0.0053986068355 -0.0055243474608 -0.0056612244826 
-0.0058159087775 -0.006001071288 -0.0062315529481 -0.0065209250101 -0.0068791494328 -0.0073114923705 -0.0078181726507 -0.0083943164229 -0.0090301873328 
-0.0097113990781 -0.010419467899 -0.011132645654 -0.011826936843 -0.012477272552 -0.013058636268 -0.013547070407 -0.013920587724 -0.014160021499 
-0.014249853298 -0.01417906047 -0.013942056606 -0.013539819884 -0.01297085048 -0.012234780136 -0.011351574658 -0.010348278712 -0.0092592969891 
-0.0081261659315 -0.0069966139269 -0.0059225953125 -0.0049569800199 -0.0041487168394 -0.0035366240507 -0.0031425307705 -0.0029652080942 -0.002977137363 
-0.0031262362942 -0.0033440833941 -0.0035616975048 -0.0037325544717 -0.0038343943147 -0.0038712539334 -0.0038818055677 -0.0038756273056 -0.0049109956136 
-0.0050008289329 -0.0051110809923 -0.0052429340153 -0.0053937549211 -0.0055665759514 -0.0057713271715 -0.0060222137664 -0.0063339728458 -0.0067188293351 
-0.0071847284384 -0.0077344952138 -0.0083655150632 -0.0090698601621 -0.0098344714503 -0.010641781836 -0.011470633901 -0.012297349436 -0.013096907077 
-0.013844029678 -0.014514120245 -0.015084095612 -0.015533167559 -0.015843581393 -0.016001342373 -0.015996985421 -0.015826376839 -0.015491643419 
-0.014979667526 -0.014293358962 -0.013449601427 -0.01247116898 -0.011387120586 -0.010232923802 -0.009050082286 -0.0078849948604 -0.0067867480623 
-0.0058036259731 -0.0049783526421 -0.0043424699971 -0.0039107496272 -0.0036770080732 -0.0036129304355 -0.0036714203101 -0.0037955381869 -0.0039322392939 
-0.0040444970169 -0.0041329185561 -0.0041808104169 -0.0041989690405 -0.004686497001 -0.0048066425884 -0.0049373193132 -0.0050940574202 -0.005281805652 
-0.0055078387653 -0.005783778153 -0.0061233917698 -0.006539522353 -0.0070418296066 -0.0076353779457 -0.0083198643464 -0.0090894404861 -0.009932726195 
-0.010833390088 -0.01177112139 -0.012722753558 -0.013663470556 -0.014567902885 -0.015411029472 -0.016168966331 -0.016819713141 -0.017343824614 
-0.017725039443 -0.017950906244 -0.01801334958 -0.017909274385 -0.017641281761 -0.017188538137 -0.016555745192 -0.015756709453 -0.014809755603 
-0.013738249657 -0.012571029428 -0.011342569566 -0.010092644137 -0.0088652296308 -0.0077064199869 -0.0066612395636 -0.0057694670644 -0.0050609020147 
-0.0045508242705 -0.0042366222656 -0.0040966712851 -0.0040925670572 -0.0041759069498 -0.0043007254843 -0.0044259234491 -0.0045099194385 -0.0045527230885 
-0.0045014644033 -0.0046465439634 -0.0047996165246 -0.0049882599705 -0.0052248604848 -0.0055195655097 -0.0058838801159 -0.0063295401714 -0.0068664787738 
-0.0075010756679 -0.0082349178191 -0.0090641794981 -0.0099793343349 -0.010965532234 -0.012003541422 -0.013070870516 -0.014143008626 -0.015194558388 
-0.016200141718 -0.017135196079 -0.01797673132 -0.018703980718 -0.019298980223 -0.01974709754 -0.020037420057 -0.020163127954 -0.020121903573 
-0.019916410467 -0.019522451809 -0.018945350574 -0.018195953779 -0.017288172599 -0.016239603285 -0.015072193679 -0.013812840917 -0.012493769725 
-0.01115248802 -0.0098310844101 -0.0085746673313 -0.0074288395963 -0.0064362340668 -0.0056322724963 -0.0050404243691 -0.0046673475449 -0.004498564385 
-0.0044962180332 -0.0046023772518 -0.0047495856745 -0.0048820005395 -0.0049524297678 -0.0043956768908 -0.0045615407522 -0.0047376548363 -0.0049643499667 
-0.0052593211216 -0.0056337115779 -0.0060974735614 -0.0066595115108 -0.0073263435659 -0.0081006268979 -0.0089801192333 -0.009957021998 -0.011018018211 
-0.012145079885 -0.013316500653 -0.014508134094 -0.015694559166 -0.016850014522 -0.017949241702 -0.018968300502 -0.019885258514 -0.020680772742 
-0.021338579686 -0.021845779779 -0.022193050611 -0.022374811437 -0.022389399613 -0.022239322736 -0.02190117639 -0.021380205046 -0.020684498651 
-0.01982381438 -0.018810206857 -0.017658805753 -0.016388718642 -0.01502397966 -0.013594402072 -0.012136149866 -0.0106918003 -0.0093096220655 
-0.0080417587348 -0.006940953575 -0.0060553691156 -0.0054210214223 -0.0050517043297 -0.0049278557872 -0.0049902735679 -0.0051503566143 -0.0053224193845 
-0.0054195603012 -0.0044060001902 -0.0045871899603 -0.0047871789265 -0.0050562568597 -0.0054151828996 -0.0058746654208 -0.0064424458254 -0.0071243249476 
-0.0079231533788 -0.0088376188807 -0.0098612660723 -0.010982146436 -0.01218340061 -0.013444127893 -0.014740557345 -0.016047209023 -0.017337860424 
-0.018586446068 -0.019767971321 -0.020859293002 -0.021839749239 -0.022691679099 -0.023400684011 -0.023955753852 -0.024349275823 -0.024576984137 
-0.024637898616 -0.024534329903 -0.024246969205 -0.023780775782 -0.023141396087 -0.02233490213 -0.021368327262 -0.020250437119 -0.018992762492 
-0.017610898414 -0.016126043058 -0.014566669608 -0.012970107031 -0.011383671362 -0.0098648066241 -0.0084794220578 -0.0072972808505 -0.0063830424164 
-0.0057818377825 -0.005500189124 -0.0054889278952 -0.0056454626641 -0.0058464818311 -0.0059707944569 -0.0045588058775 -0.0047506852898 -0.0049748227777 
-0.0052879587346 -0.0057120578153 -0.006256690293 -0.0069272944099 -0.0077265041496 -0.0086534100437 -0.0097024697218 -0.010862835417 -0.012118666592 
-0.013449807809 -0.014832826245 -0.016242128146 -0.017650931908 -0.019032212595 -0.020359730724 -0.021608937215 -0.022757687856 -0.023786862919 
-0.024680672348 -0.025426769949 -0.026016205702 -0.02644325051 -0.026705100479 -0.026801586888 -0.026734902179 -0.026491914158 -0.026077457666 
-0.025495139981 -0.024747997616 -0.023838860115 -0.022770966502 -0.021548926082 -0.020180147168 -0.018676803705 -0.01705832617 -0.015354285394 
-0.013607326031 -0.011875466831 -0.010232609768 -0.0087655045301 -0.007564845516 -0.0067081687079 -0.0062340322604 -0.00611321047 -0.0062367029432 
-0.0064473848929 -0.0066150200034 -0.0048692939343 -0.0050678490084 -0.0053151873346 -0.0056712009457 -0.0061578265913 -0.006783366932 -0.0075510144003 
-0.0084602931852 -0.0095064157781 -0.01067948862 -0.011964577808 -0.01334221888 -0.014789283096 -0.016280025957 -0.017787029719 -0.019282173563 
-0.020737760583 -0.022127565647 -0.023427658818 -0.024617179587 -0.025678737543 -0.026598584417 -0.027366603455 -0.027976096205 -0.028423365138 
-0.028707234584 -0.028828503946 -0.028789390994 -0.028583744161 -0.028216528067 -0.027689793835 -0.027004350396 -0.026159865808 -0.025155205254 
-0.023989172292 -0.022661823013 -0.021176531464 -0.019542961849 -0.017780956953 -0.015925079836 -0.014029115802 -0.012169183679 -0.010443206914 
-0.0089635392504 -0.0078390877575 -0.0071446991504 -0.0068818534073 -0.0069511008139 -0.0071775668878 -0.0073760579988 -0.0053406451294 -0.0055421025254 
-0.0058102615341 -0.0062055367471 -0.0067492215806 -0.0074483366016 -0.0083039379058 -0.0093124318901 -0.010465114822 -0.011748100711 -0.013142724265 
-0.014626248392 -0.016172835313 -0.017754442248 -0.019341795669 -0.020905578584 -0.022417630931 -0.023851891526 -0.025185358519 -0.026398626892 
-0.027476179308 -0.028406481805 -0.029181813289 -0.029797819988 -0.030252950634 -0.030547748943 -0.030684065341 -0.030664346464 -0.030489110739 
-0.030163538942 -0.029688680758 -0.029063984964 -0.028287115932 -0.027353974668 -0.026259066562 -0.024996458298 -0.023561644836 -0.021954621366 
-0.020184352826 -0.018274587277 -0.01627044741 -0.014244390759 -0.012298949033 -0.010562277702 -0.0091715108193 -0.0082396303512 -0.007807158939 
-0.0077967545232 -0.0080201361531 -0.0082535787108 -0.0059646629987 -0.0061652447009 -0.0064506174491 -0.0068799383119 -0.0074734456637 -0.0082368462207 
-0.0091690615809 -0.010263390128 -0.011507586169 -0.012884232649 -0.014371345769 -0.015943266144 -0.017571522283 -0.019225789865 -0.020875105286 
-0.022489214914 -0.024039637371 -0.025500818517 -0.026850841736 -0.028071885887 -0.029150476818 -0.030077436401 -0.030847477701 -0.031458627341 
-0.031911459235 -0.032208171568 -0.032351704744 -0.032344834057 -0.032193731748 -0.031903573252 -0.031474948212 -0.030906785829 -0.030195930802 
-0.029336810127 -0.028321350923 -0.027139439237 -0.025780290454 -0.024235193306 -0.022502087228 -0.020592194132 -0.018538378962 -0.016403960633 
-0.014289247072 -0.012331216391 -0.010690025933 -0.0095157686796 -0.0088932792993 -0.008778943546 -0.0089825324621 -0.0092479682391 -0.0067235578141 
-0.0069194357022 -0.0072177320051 -0.0076750912731 -0.0083102899766 -0.0091275725371 -0.01012368571 -0.011289133874 -0.012608658153 -0.014061793599 
-0.015623676959 -0.017265902405 -0.018957454112 -0.020665930589 -0.02235901691 -0.02400567923 -0.025577495781 -0.027049575436 -0.028401214125 
-0.029616344849 -0.030683678509 -0.03159639337 -0.0323516128 -0.0329496417 -0.033392967603 -0.033685310822 -0.033830656372 -0.033831742116 
-0.033699542259 -0.033438425686 -0.033049048948 -0.03253056591 -0.031880030459 -0.031091779986 -0.030156931801 -0.02906323526 -0.027795716435 
-0.02633874092 -0.024680185 -0.022818283444 -0.020771238262 -0.018588633904 -0.016362000589 -0.014229541505 -0.012367522003 -0.010959375945 
-0.01013636037 -0.0098982478122 -0.010065916311 -0.010355799037 -0.007592370751 -0.0077798945413 -0.0080866760113 -0.0085658528387 -0.0092342940826 
-0.010094559297 -0.011141368633 -0.012362933007 -0.013741507449 -0.015254073525 -0.016873176474 -0.018567828682 -0.020304731013 -0.022049827599 
-0.023769656171 -0.025432814525 -0.027011120729 -0.028480479953 -0.029821572791 -0.031020249389 -0.032067378753 -0.032958453689 -0.033692879148 
-0.034272915232 -0.034702684607 -0.034987178405 -0.035131352266 -0.035137158123 -0.035019793451 -0.034781654565 -0.034423976315 -0.033946675317 
-0.033347784565 -0.032622685183 -0.031763239628 -0.030757059324 -0.029587346331 -0.028233974874 -0.026676735992 -0.024901738455 -0.022911575437 
-0.020738814607 -0.01846047505 -0.016208363576 -0.014166789036 -0.012546421611 -0.011523952934 -0.011149622676 -0.011269314692 -0.011581850954 
-0.0085417202134 -0.0087176897346 -0.0090286648581 -0.0095235346204 -0.010216803176 -0.01110922291 -0.012193824306 -0.013457028627 -0.014879096114 
-0.01643482569 -0.018094400335 -0.019824568514 -0.02159023512 -0.023355980858 -0.025087622904 -0.026753629299 -0.028326196664 -0.029782203677 
-0.031103902206 -0.032279015139 -0.033300543238 -0.034166175295 -0.034877222402 -0.035437575828 -0.035852596463 -0.036128072658 -0.036269418668 
-0.036279863578 -0.036173556912 -0.035952846587 -0.035619492719 -0.035174378986 -0.034616949473 -0.03394435958 -0.033150383358 -0.032224231091 
-0.031149594888 -0.02990459152 -0.028463687333 -0.026802979164 -0.024910070671 -0.022798844291 -0.02052738741 -0.018214093586 -0.016042759714 
-0.014243361397 -0.013033966358 -0.012518683673 -0.012579750533 -0.012905822833 -0.0095404681113 -0.0097021899978 -0.010013267014 -0.010517901833 
-0.01122788185 -0.012142204864 -0.013252580819 -0.01454404914 -0.015995260496 -0.017579101525 -0.019263739151 -0.021014181012 -0.022793937972 
-0.024566656865 -0.026297757052 -0.027955723243 -0.029513318349 -0.030948595234 -0.032245333893 -0.03339312116 -0.034386991181 -0.035226449159 
-0.035914413737 -0.036456004999 -0.036857327852 -0.037124540051 -0.037263234208 -0.037278031795 -0.037180195392 -0.036972346642 -0.036656784439 
-0.036235379788 -0.035709110681 -0.035077247634 -0.034336193601 -0.033478002155 -0.032488788965 -0.031347584223 -0.030026703022 -0.02849531179 
-0.026728119769 -0.024720426285 -0.02250866998 -0.020191996525 -0.017945321644 -0.01600878822 -0.014635038736 -0.013981715304 -0.013976398533 
-0.014307618713 -0.01055797111 -0.010703017497 -0.011010166635 -0.011518853707 -0.012237990744 -0.013164938993 -0.014290310448 -0.015598061183 
-0.017065497836 -0.018663922182 -0.020360010449 -0.022117532055 -0.023899039374 -0.025667650284 -0.027388560461 -0.0290304724 -0.030566924037 
-0.031977125476 -0.033246370537 -0.034366035405 -0.035332821818 -0.036147779711 -0.036815062394 -0.037340530191 -0.03773059888 -0.037991452723 
-0.038128483908 -0.038147428259 -0.038056231122 -0.037857701108 -0.037554554413 -0.037149534208 -0.03664506604 -0.036042555085 -0.035341272593 
-0.03453679035 -0.033619004637 -0.032570087652 -0.031363312486 -0.02996454128 -0.028338890751 -0.026464899626 -0.024356557065 -0.02208958321 
-0.019822507346 -0.017796056698 -0.016288579004 -0.015507518661 -0.015431817178 -0.015760684363 -0.011565917122 -0.011691280035 -0.011990411108 
-0.012497784796 -0.013219362052 -0.014150825171 -0.015281783211 -0.016595288897 -0.018067559625 -0.019668794856 -0.021364742651 -0.023118389244 
-0.024891787411 -0.026647763025 -0.028351498833 -0.029972139286 -0.031484028478 -0.032867496469 -0.034109306421 -0.035202272694 -0.036144503735 
-0.036938265076 -0.037588476096 -0.038101334759 -0.038483271078 -0.03874012486 -0.038876786449 -0.038899494663 -0.038813662645 -0.038621800273 
-0.038326877271 -0.037932336884 -0.037441843872 -0.036858719209 -0.036184984408 -0.035419880143 -0.034557760099 -0.033585465252 -0.032479857386 
-0.031207151391 -0.029726918958 -0.028004213374 -0.026031700449 -0.023859473906 -0.021623638927 -0.019556282217 -0.017951347165 -0.017059469711 
-0.016913579681 -0.01723394646 -0.012540299615 -0.012639433035 -0.012927243809 -0.013428665145 -0.014146975422 -0.015076044229 -0.016204504882 
-0.017514618917 -0.018981896614 -0.020576004311 -0.022262244928 -0.024003300174 -0.025761047695 -0.027498240008 -0.02918029823 -0.030776904578 
-0.032263161128 -0.033620502235 -0.034836830355 -0.035906128206 -0.036827619215 -0.037604326548 -0.038241556031 -0.038745589631 -0.039122535339 
-0.039377724166 -0.039515664328 -0.039540616787 -0.039459654541 -0.039272561387 -0.038982690031 -0.038594075226 -0.038111386376 -0.037539543272 
-0.036882956009 -0.036144265757 -0.035322357619 -0.034409499195 -0.033387983149 -0.032227564316 -0.030886508357 -0.029320658774 -0.027504192042 
-0.025461460561 -0.023302028463 -0.021241213742 -0.019578079989 -0.018597646441 -0.018386024354 -0.018693473234 -0.013454710851 -0.013530513283 
-0.0137972412 -0.014288901983 -0.014999275926 -0.015920111087 -0.017039130386 -0.018337958645 -0.01979192384 -0.021370669411 -0.023039525455 
-0.02476127369 -0.026497857393 -0.028212234478 -0.029870233417 -0.031442057026 -0.032903573437 -0.034237038659 -0.035431200386 -0.036480943413 
-0.037386150673 -0.038150222415 -0.038778616499 -0.039277366511 -0.039652061508 -0.03990743303 -0.040047281247 -0.04007486891 -0.039997683857 
-0.039813689251 -0.039526375483 -0.039140207482 -0.038660636075 -0.038093813936 -0.037446063041 -0.036722914481 -0.035927420009 -0.035057337404 
-0.034101342123 -0.03303508122 -0.031819385617 -0.030405596869 -0.028753531135 -0.026863637536 -0.024816976484 -0.022805660967 -0.021123873488 
-0.020080820879 -0.019811837041 -0.020103839159 -0.014285664869 -0.014349066013 -0.014589128665 -0.015059778174 -0.015758731268 -0.016666173224 