# vtk DataFile Version 4.1
vtk output
ASCII
DATASET STRUCTURED_GRID
DIMENSIONS 51 51 1
POINTS 2601 float
0 0 0 0.02 0 0 0.04 0 0 
0.06 0 0 0.08 0 0 0.1 0 0 
0.12 0 0 0.14 0 0 0.16 0 0 
0.18 0 0 0.2 0 0 0.22 0 0 
0.24 0 0 0.26 0 0 0.28 0 0 
0.3 0 0 0.32 0 0 0.34 0 0 
0.36 0 0 0.38 0 0 0.4 0 0 
0.42 0 0 0.44 0 0 0.46 0 0 
0.48 0 0 0.5 0 0 0.52 0 0 
0.54 0 0 0.56 0 0 0.58 0 0 
0.6 0 0 0.62 0 0 0.64 0 0 
0.66 0 0 0.68 0 0 0.7 0 0 
0.72 0 0 0.74 0 0 0.76 0 0 
0.78 0 0 0.8 0 0 0.82 0 0 
0.84 0 0 0.86 0 0 0.88 0 0 
0.9 0 0 0.92 0 0 0.94 0 0 
0.96 0 0 0.98 0 0 1 0 0 
0 0.02 0 0.02 0.02 0 0.04 0.02 0 
0.06 0.02 0 0.08 0.02 0 0.1 0.02 0 
0.12 0.02 0 0.14 0.02 0 0.16 0.02 0 
0.18 0.02 0 0.2 0.02 0 0.22 0.02 0 
0.24 0.02 0 0.26 0.02 0 0.28 0.02 0 
0.3 0.02 0 0.32 0.02 0 0.34 0.02 0 
0.36 0.02 0 0.38 0.02 0 0.4 0.02 0 
0.42 0.02 0 0.44 0.02 0 0.46 0.02 0 
0.48 0.02 0 0.5 0.02 0 0.52 0.02 0 
0.54 0.02 0 0.56 0.02 0 0.58 0.02 0 
0.6 0.02 0 0.62 0.02 0 0.64 0.02 0 
0.66 0.02 0 0.68 0.02 0 0.7 0.02 0 
0.72 0.02 0 0.74 0.02 0 0.76 0.02 0 
0.78 0.02 0 0.8 0.02 0 0.82 0.02 0 
0.84 0.02 0 0.86 0.02 0 0.88 0.02 0 
0.9 0.02 0 0.92 0.02 0 0.94 0.02 0 
0.96 0.02 0 0.98 0.02 0 1 0.02 0 
0 0.04 0 0.02 0.04 0 0.04 0.04 0 
0.06 0.04 0 0.08 0.04 0 0.1 0.04 0 
0.12 0.04 0 0.14 0.04 0 0.16 0.04 0 
0.18 0.04 0 0.2 0.04 0 0.22 0.04 0 
0.24 0.04 0 0.26 0.04 0 0.28 0.04 0 
0.3 0.04 0 0.32 0.04 0 0.34 0.04 0 
0.36 0.04 0 0.38 0.04 0 0.4 0.04 0 
0.42 0.04 0 0.44 0.04 0 0.46 0.04 0 
0.48 0.04 0 0.5 0.04 0 0.52 0.04 0 
0.54 0.04 0 0.56 0.04 0 0.58 0.04 0 
0.6 0.04 0 0.62 0.04 0 0.64 0.04 0 
0.66 0.04 0 0.68 0.04 0 0.7 0.04 0 
0.72 0.04 0 0.74 0.04 0 0.76 0.04 0 
0.78 0.04 0 0.8 0.04 0 0.82 0.04 0 
0.84 0.04 0 0.86 0.04 0 0.88 0.04 0 
0.9 0.04 0 0.92 0.04 0 0.94 0.04 0 
0.96 0.04 0 0.98 0.04 0 1 0.04 0 
0 0.06 0 0.02 0.06 0 0.04 0.06 0 
0.06 0.06 0 0.08 0.06 0 0.1 0.06 0 
0.12 0.06 0 0.14 0.06 0 0.16 0.06 0 
0.18 0.06 0 0.2 0.06 0 0.22 0.06 0 
0.24 0.06 0 0.26 0.06 0 0.28 0.06 0 
0.3 0.06 0 0.32 0.06 0 0.34 0.06 0 
0.36 0.06 0 0.38 0.06 0 0.4 0.06 0 
0.42 0.06 0 0.44 0.06 0 0.46 0.06 0 
0.48 0.06 0 0.5 0.06 0 0.52 0.06 0 
0.54 0.06 0 0.56 0.06 0 0.58 0.06 0 
0.6 0.06 0 0.62 0.06 0 0.64 0.06 0 
0.66 0.06 0 0.68 0.06 0 0.7 0.06 0 
0.72 0.06 0 0.74 0.06 0 0.76 0.06 0 
0.78 0.06 0 0.8 0.06 0 0.82 0.06 0 
0.84 0.06 0 0.86 0.06 0 0.88 0.06 0 
0.9 0.06 0 0.92 0.06 0 0.94 0.06 0 
0.96 0.06 0 0.98 0.06 0 1 0.06 0 
0 0.08 0 0.02 0.08 0 0.04 0.08 0 
0.06 0.08 0 0.08 0.08 0 0.1 0.08 0 
0.12 0.08 0 0.14 0.08 0 0.16 0.08 0 
0.18 0.08 0 0.2 0.08 0 0.22 0.08 0 
0.24 0.08 0 0.26 0.08 0 0.28 0.08 0 
0.3 0.08 0 0.32 0.08 0 0.34 0.08 0 
0.36 0.08 0 0.38 0.08 0 0.4 0.08 0 
0.42 0.08 0 0.44 0.08 0 0.46 0.08 0 
0.48 0.08 0 0.5 0.08 0 0.52 0.08 0 
0.54 0.08 0 0.56 0.08 0 0.58 0.08 0 
0.6 0.08 0 0.62 0.08 0 0.64 0.08 0 
0.66 0.08 0 0.68 0.08 0 0.7 0.08 0 
0.72 0.08 0 0.74 0.08 0 0.76 0.08 0 
0.78 0.08 0 0.8 0.08 0 0.82 0.08 0 
0.84 0.08 0 0.86 0.08 0 0.88 0.08 0 
0.9 0.08 0 0.92 0.08 0 0.94 0.08 0 
0.96 0.08 0 0.98 0.08 0 1 0.08 0 
0 0.1 0 0.02 0.1 0 0.04 0.1 0 
0.06 0.1 0 0.08 0.1 0 0.1 0.1 0 
0.12 0.1 0 0.14 0.1 0 0.16 0.1 0 
0.18 0.1 0 0.2 0.1 0 0.22 0.1 0 
0.24 0.1 0 0.26 0.1 0 0.28 0.1 0 
0.3 0.1 0 0.32 0.1 0 0.34 0.1 0 
0.36 0.1 0 0.38 0.1 0 0.4 0.1 0 
0.42 0.1 0 0.44 0.1 0 0.46 0.1 0 
0.48 0.1 0 0.5 0.1 0 0.52 0.1 0 
0.54 0.1 0 0.56 0.1 0 0.58 0.1 0 
0.6 0.1 0 0.62 0.1 0 0.64 0.1 0 
0.66 0.1 0 0.68 0.1 0 0.7 0.1 0 
0.72 0.1 0 0.74 0.1 0 0.76 0.1 0 
0.78 0.1 0 0.8 0.1 0 0.82 0.1 0 
0.84 0.1 0 0.86 0.1 0 0.88 0.1 0 
0.9 0.1 0 0.92 0.1 0 0.94 0.1 0 
0.96 0.1 0 0.98 0.1 0 1 0.1 0 
0 0.12 0 0.02 0.12 0 0.04 0.12 0 
0.06 0.12 0 0.08 0.12 0 0.1 0.12 0 
0.12 0.12 0 0.14 0.12 0 0.16 0.12 0 
0.18 0.12 0 0.2 0.12 0 0.22 0.12 0 
0.24 0.12 0 0.26 0.12 0 0.28 0.12 0 
0.3 0.12 0 0.32 0.12 0 0.34 0.12 0 
0.36 0.12 0 0.38 0.12 0 0.4 0.12 0 
0.42 0.12 0 0.44 0.12 0 0.46 0.12 0 
0.48 0.12 0 0.5 0.12 0 0.52 0.12 0 
0.54 0.12 0 0.56 0.12 0 0.58 0.12 0 
0.6 0.12 0 0.62 0.12 0 0.64 0.12 0 
0.66 0.12 0 0.68 0.12 0 0.7 0.12 0 
0.72 0.12 0 0.74 0.12 0 0.76 0.12 0 
0.78 0.12 0 0.8 0.12 0 0.82 0.12 0 
0.84 0.12 0 0.86 0.12 0 0.88 0.12 0 
0.9 0.12 0 0.92 0.12 0 0.94 0.12 0 
0.96 0.12 0 0.98 0.12 0 1 0.12 0 
0 0.14 0 0.02 0.14 0 0.04 0.14 0 
0.06 0.14 0 0.08 0.14 0 0.1 0.14 0 
0.12 0.14 0 0.14 0.14 0 0.16 0.14 0 
0.18 0.14 0 0.2 0.14 0 0.22 0.14 0 
0.24 0.14 0 0.26 0.14 0 0.28 0.14 0 
0.3 0.14 0 0.32 0.14 0 0.34 0.14 0 
0.36 0.14 0 0.38 0.14 0 0.4 0.14 0 
0.42 0.14 0 0.44 0.14 0 0.46 0.14 0 
0.48 0.14 0 0.5 0.14 0 0.52 0.14 0 
0.54 0.14 0 0.56 0.14 0 0.58 0.14 0 
0.6 0.14 0 0.62 0.14 0 0.64 0.14 0 
0.66 0.14 0 0.68 0.14 0 0.7 0.14 0 
0.72 0.14 0 0.74 0.14 0 0.76 0.14 0 
0.78 0.14 0 0.8 0.14 0 0.82 0.14 0 
0.84 0.14 0 0.86 0.14 0 0.88 0.14 0 
0.9 0.14 0 0.92 0.14 0 0.94 0.14 0 
0.96 0.14 0 0.98 0.14 0 1 0.14 0 
0 0.16 0 0.02 0.16 0 0.04 0.16 0 
0.06 0.16 0 0.08 0.16 0 0.1 0.16 0 
0.12 0.16 0 0.14 0.16 0 0.16 0.16 0 
0.18 0.16 0 0.2 0.16 0 0.22 0.16 0 
0.24 0.16 0 0.26 0.16 0 0.28 0.16 0 
0.3 0.16 0 0.32 0.16 0 0.34 0.16 0 
0.36 0.16 0 0.38 0.16 0 0.4 0.16 0 
0.42 0.16 0 0.44 0.16 0 0.46 0.16 0 
0.48 0.16 0 0.5 0.16 0 0.52 0.16 0 
0.54 0.16 0 0.56 0.16 0 0.58 0.16 0 
0.6 0.16 0 0.62 0.16 0 0.64 0.16 0 
0.66 0.16 0 0.68 0.16 0 0.7 0.16 0 
0.72 0.16 0 0.74 0.16 0 0.76 0.16 0 
0.78 0.16 0 0.8 0.16 0 0.82 0.16 0 
0.84 0.16 0 0.86 0.16 0 0.88 0.16 0 
0.9 0.16 0 0.92 0.16 0 0.94 0.16 0 
0.96 0.16 0 0.98 0.16 0 1 0.16 0 
0 0.18 0 0.02 0.18 0 0.04 0.18 0 
0.06 0.18 0 0.08 0.18 0 0.1 0.18 0 
0.12 0.18 0 0.14 0.18 0 0.16 0.18 0 
0.18 0.18 0 0.2 0.18 0 0.22 0.18 0 
0.24 0.18 0 0.26 0.18 0 0.28 0.18 0 
0.3 0.18 0 0.32 0.18 0 0.34 0.18 0 
0.36 0.18 0 0.38 0.18 0 0.4 0.18 0 
0.42 0.18 0 0.44 0.18 0 0.46 0.18 0 
0.48 0.18 0 0.5 0.18 0 0.52 0.18 0 
0.54 0.18 0 0.56 0.18 0 0.58 0.18 0 
0.6 0.18 0 0.62 0.18 0 0.64 0.18 0 
0.66 0.18 0 0.68 0.18 0 0.7 0.18 0 
0.72 0.18 0 0.74 0.18 0 0.76 0.18 0 
0.78 0.18 0 0.8 0.18 0 0.82 0.18 0 
0.84 0.18 0 0.86 0.18 0 0.88 0.18 0 
0.9 0.18 0 0.92 0.18 0 0.94 0.18 0 
0.96 0.18 0 0.98 0.18 0 1 0.18 0 
0 0.2 0 0.02 0.2 0 0.04 0.2 0 
0.06 0.2 0 0.08 0.2 0 0.1 0.2 0 
0.12 0.2 0 0.14 0.2 0 0.16 0.2 0 
0.18 0.2 0 0.2 0.2 0 0.22 0.2 0 
0.24 0.2 0 0.26 0.2 0 0.28 0.2 0 
0.3 0.2 0 0.32 0.2 0 0.34 0.2 0 
0.36 0.2 0 0.38 0.2 0 0.4 0.2 0 
0.42 0.2 0 0.44 0.2 0 0.46 0.2 0 
0.48 0.2 0 0.5 0.2 0 0.52 0.2 0 
0.54 0.2 0 0.56 0.2 0 0.58 0.2 0 
0.6 0.2 0 0.62 0.2 0 0.64 0.2 0 
0.66 0.2 0 0.68 0.2 0 0.7 0.2 0 
0.72 0.2 0 0.74 0.2 0 0.76 0.2 0 
0.78 0.2 0 0.8 0.2 0 0.82 0.2 0 
0.84 0.2 0 0.86 0.2 0 0.88 0.2 0 
0.9 0.2 0 0.92 0.2 0 0.94 0.2 0 
0.96 0.2 0 0.98 0.2 0 1 0.2 0 
0 0.22 0 0.02 0.22 0 0.04 0.22 0 
0.06 0.22 0 0.08 0.22 0 0.1 0.22 0 
0.12 0.22 0 0.14 0.22 0 0.16 0.22 0 
0.18 0.22 0 0.2 0.22 0 0.22 0.22 0 
0.24 0.22 0 0.26 0.22 0 0.28 0.22 0 
0.3 0.22 0 0.32 0.22 0 0.34 0.22 0 
0.36 0.22 0 0.38 0.22 0 0.4 0.22 0 
0.42 0.22 0 0.44 0.22 0 0.46 0.22 0 
0.48 0.22 0 0.5 0.22 0 0.52 0.22 0 
0.54 0.22 0 0.56 0.22 0 0.58 0.22 0 
0.6 0.22 0 0.62 0.22 0 0.64 0.22 0 
0.66 0.22 0 0.68 0.22 0 0.7 0.22 0 
0.72 0.22 0 0.74 0.22 0 0.76 0.22 0 
0.78 0.22 0 0.8 0.22 0 0.82 0.22 0 
0.84 0.22 0 0.86 0.22 0 0.88 0.22 0 
0.9 0.22 0 0.92 0.22 0 0.94 0.22 0 
0.96 0.22 0 0.98 0.22 0 1 0.22 0 
0 0.24 0 0.02 0.24 0 0.04 0.24 0 
0.06 0.24 0 0.08 0.24 0 0.1 0.24 0 
0.12 0.24 0 0.14 0.24 0 0.16 0.24 0 
0.18 0.24 0 0.2 0.24 0 0.22 0.24 0 
0.24 0.24 0 0.26 0.24 0 0.28 0.24 0 
0.3 0.24 0 0.32 0.24 0 0.34 0.24 0 
0.36 0.24 0 0.38 0.24 0 0.4 0.24 0 
0.42 0.24 0 0.44 0.24 0 0.46 0.24 0 
0.48 0.24 0 0.5 0.24 0 0.52 0.24 0 
0.54 0.24 0 0.56 0.24 0 0.58 0.24 0 
0.6 0.24 0 0.62 0.24 0 0.64 0.24 0 
0.66 0.24 0 0.68 0.24 0 0.7 0.24 0 
0.72 0.24 0 0.74 0.24 0 0.76 0.24 0 
0.78 0.24 0 0.8 0.24 0 0.82 0.24 0 
0.84 0.24 0 0.86 0.24 0 0.88 0.24 0 
0.9 0.24 0 0.92 0.24 0 0.94 0.24 0 
0.96 0.24 0 0.98 0.24 0 1 0.24 0 
0 0.26 0 0.02 0.26 0 0.04 0.26 0 
0.06 0.26 0 0.08 0.26 0 0.1 0.26 0 
0.12 0.26 0 0.14 0.26 0 0.16 0.26 0 
0.18 0.26 0 0.2 0.26 0 0.22 0.26 0 
0.24 0.26 0 0.26 0.26 0 0.28 0.26 0 
0.3 0.26 0 0.32 0.26 0 0.34 0.26 0 
0.36 0.26 0 0.38 0.26 0 0.4 0.26 0 
0.42 0.26 0 0.44 0.26 0 0.46 0.26 0 
0.48 0.26 0 0.5 0.26 0 0.52 0.26 0 
0.54 0.26 0 0.56 0.26 0 0.58 0.26 0 
0.6 0.26 0 0.62 0.26 0 0.64 0.26 0 
0.66 0.26 0 0.68 0.26 0 0.7 0.26 0 
0.72 0.26 0 0.74 0.26 0 0.76 0.26 0 
0.78 0.26 0 0.8 0.26 0 0.82 0.26 0 
0.84 0.26 0 0.86 0.26 0 0.88 0.26 0 
0.9 0.26 0 0.92 0.26 0 0.94 0.26 0 
0.96 0.26 0 0.98 0.26 0 1 0.26 0 
0 0.28 0 0.02 0.28 0 0.04 0.28 0 
0.06 0.28 0 0.08 0.28 0 0.1 0.28 0 
0.12 0.28 0 0.14 0.28 0 0.16 0.28 0 
0.18 0.28 0 0.2 0.28 0 0.22 0.28 0 
0.24 0.28 0 0.26 0.28 0 0.28 0.28 0 
0.3 0.28 0 0.32 0.28 0 0.34 0.28 0 
0.36 0.28 0 0.38 0.28 0 0.4 0.28 0 
0.42 0.28 0 0.44 0.28 0 0.46 0.28 0 
0.48 0.28 0 0.5 0.28 0 0.52 0.28 0 
0.54 0.28 0 0.56 0.28 0 0.58 0.28 0 
0.6 0.28 0 0.62 0.28 0 0.64 0.28 0 
0.66 0.28 0 0.68 0.28 0 0.7 0.28 0 
0.72 0.28 0 0.74 0.28 0 0.76 0.28 0 
0.78 0.28 0 0.8 0.28 0 0.82 0.28 0 
0.84 0.28 0 0.86 0.28 0 0.88 0.28 0 
0.9 0.28 0 0.92 0.28 0 0.94 0.28 0 
0.96 0.28 0 0.98 0.28 0 1 0.28 0 
0 0.3 0 0.02 0.3 0 0.04 0.3 0 
0.06 0.3 0 0.08 0.3 0 0.1 0.3 0 
0.12 0.3 0 0.14 0.3 0 0.16 0.3 0 
0.18 0.3 0 0.2 0.3 0 0.22 0.3 0 
0.24 0.3 0 0.26 0.3 0 0.28 0.3 0 
0.3 0.3 0 0.32 0.3 0 0.34 0.3 0 
0.36 0.3 0 0.38 0.3 0 0.4 0.3 0 
0.42 0.3 0 0.44 0.3 0 0.46 0.3 0 
0.48 0.3 0 0.5 0.3 0 0.52 0.3 0 
0.54 0.3 0 0.56 0.3 0 0.58 0.3 0 
0.6 0.3 0 0.62 0.3 0 0.64 0.3 0 
0.66 0.3 0 0.68 0.3 0 0.7 0.3 0 
0.72 0.3 0 0.74 0.3 0 0.76 0.3 0 
0.78 0.3 0 0.8 0.3 0 0.82 0.3 0 
0.84 0.3 0 0.86 0.3 0 0.88 0.3 0 
0.9 0.3 0 0.92 0.3 0 0.94 0.3 0 
0.96 0.3 0 0.98 0.3 0 1 0.3 0 
0 0.32 0 0.02 0.32 0 0.04 0.32 0 
0.06 0.32 0 0.08 0.32 0 0.1 0.32 0 
0.12 0.32 0 0.14 0.32 0 0.16 0.32 0 
0.18 0.32 0 0.2 0.32 0 0.22 0.32 0 
0.24 0.32 0 0.26 0.32 0 0.28 0.32 0 
0.3 0.32 0 0.32 0.32 0 0.34 0.32 0 
0.36 0.32 0 0.38 0.32 0 0.4 0.32 0 
0.42 0.32 0 0.44 0.32 0 0.46 0.32 0 
0.48 0.32 0 0.5 0.32 0 0.52 0.32 0 
0.54 0.32 0 0.56 0.32 0 0.58 0.32 0 
[...]
CELL_DATA 2500
FIELD FieldData 2
pressure 1 2500 double
-0.0056294363333 -0.0056133399287 -0.0056371607622 -0.0057063843829 -0.0058121764133 -0.0059427069126 -0.0060904729529 -0.0062537218634 -0.006435475121 
-0.006640440215 -0.0068735616317 -0.0071372572339 -0.0074297064432 -0.0077493097499 -0.0080904743974 -0.0084458708885 -0.0088058489306 -0.0091579669489 
-0.0094869831902 -0.0097751580101 -0.010002913397 -0.010149762475 -0.010195384579 -0.010120743954 -0.0099092021903 -0.00954761442 -0.0090274414714 
-0.0083459571553 -0.0075076442581 -0.0065258570195 -0.0054286148342 -0.004275734045 -0.0031107656813 -0.0019896641947 -0.00097588420204 -0.00013530785985 
0.00047075044032 0.00079451811086 0.00081196102286 0.00053268829527 3.6270187272e-05 -0.00059515562708 -0.0012613395505 -0.0018656032498 -0.0023425401028 
-0.0026785401423 -0.0028861636743 -0.0029866589027 -0.0030020635842 -0.0029606167003 -0.0056381435118 -0.0056266286503 -0.0056560316624 -0.0057238523403 
-0.0058211527515 -0.0059387345649 -0.0060722439827 -0.0062216349586 -0.0063909924712 -0.0065831127047 -0.0068030038092 -0.0070534209578 -0.0073323264296 
-0.0076385921746 -0.0079686509037 -0.0083164923211 -0.0086732483579 -0.0090268593186 -0.0093621055436 -0.0096610609268 -0.0099038593184 -0.010069668183 
-0.010137761233 -0.010088604649 -0.0099049307877 -0.0095728030831 -0.0090826972521 -0.008430581671 -0.0076189491201 -0.0066581784577 -0.0056138171429 
-0.004498287748 -0.0033645922503 -0.0022706563366 -0.0012797696697 -0.00045679926581 0.00013839424459 0.00045982867001 0.00048587355055 0.00022998653347 
-0.00025147011886 -0.00082475160813 -0.0014328703626 -0.0019781891454 -0.0023986488848 -0.002686870389 -0.0028612122308 -0.0029465591287 -0.0029634428037 
-0.0029209374894 -0.0056170247464 -0.0056089941937 -0.0056436493606 -0.0057129852365 -0.0058062914313 -0.0059146776301 -0.0060372872717 -0.0061727567835 
-0.0063288233058 -0.0065100788621 -0.0067198980156 -0.0069616558542 -0.0072365127815 -0.0075443248743 -0.0078825911729 -0.0082457327874 -0.0086246241737 
-0.0090064723191 -0.0093750938027 -0.0097115101972 -0.0099947988045 -0.010203087039 -0.01031460387 -0.010308755539 -0.010167209663 -0.0098749816786 
-0.0094214637006 -0.0088011714582 -0.008013396725 -0.0071096375048 -0.0060920700314 -0.0049988420752 -0.0038798582022 -0.0027926066822 -0.0017999981432 
-0.00096642880218 -0.00035150049553 -1.4325042589e-06 6.1302584826e-05 -0.00015125825855 -0.00058435698946 -0.0011401102274 -0.0017060630886 -0.0022181750128 
-0.0025971127287 -0.0028312122672 -0.0029595587239 -0.0030126258481 -0.0030127309474 -0.0029604868009 -0.0055547853765 -0.0055550559649 -0.0055978531837 
-0.0056722868126 -0.0057659284354 -0.0058703136801 -0.0059850040575 -0.0061127792691 -0.0062618877419 -0.0064390444511 -0.0066501492222 -0.0069002692578 
-0.0071925316105 -0.0075275785553 -0.0079027801292 -0.0083115887585 -0.0087433111286 -0.009183296719 -0.0096134417468 -0.010012969421 -0.010359351943 
-0.010629317642 -0.010799914541 -0.0108496126 -0.010759436274 -0.010514094513 -0.010103062846 -0.0095216534745 -0.0087798152554 -0.0079108773156 
-0.0069185343134 -0.0058420983768 -0.0047294715383 -0.0036363132357 -0.0026239248324 -0.0017554897981 -0.0010902151588 -0.00067527123069 -0.00053600312583 
-0.00066586256274 -0.0010191559337 -0.0015119265188 -0.0020373099845 -0.0025102821684 -0.0028702620895 -0.0030677026268 -0.0031558110913 -0.0031759434387 
-0.0031570300242 -0.0031029943003 -0.0054448911814 -0.0054589080481 -0.0055142537045 -0.005597382218 -0.0056953200636 -0.0058020891532 -0.0059175512572 
-0.0060484241258 -0.006204376892 -0.0063952782827 -0.006629872706 -0.0069149483657 -0.0072543597978 -0.0076481727222 -0.0080920745833 -0.0085771420074 
-0.009090016211 -0.0096134040961 -0.010126842529 -0.010607573368 -0.011031504876 -0.011374237163 -0.011612138795 -0.011723481357 -0.011689584948 
-0.011495927711 -0.011133127362 -0.010597594827 -0.0099112935133 -0.0090733001316 -0.0081064130753 -0.0070454068891 -0.0059345532129 -0.004826155798 
-0.0037785119916 -0.0028525193918 -0.0021064254218 -0.0015885661606 -0.0013285017443 -0.0013278961052 -0.0015538651306 -0.0019389262969 -0.0023915247443 
-0.0028170639942 -0.0031327756959 -0.0033296822369 -0.0033985362083 -0.0034021374912 -0.0033752127668 -0.0033294991894 -0.0052839234422 -0.0053175210376 
-0.0053888338013 -0.0054834031192 -0.0055938603931 -0.005711673291 -0.0058411920259 -0.0059921362436 -0.0061768355794 -0.0064077247482 -0.0066953226663 
-0.0070468638553 -0.0074652404011 -0.007948370466 -0.0084890300124 -0.0090751058626 -0.0096901524759 -0.010314187669 -0.010924559804 -0.011496877778 
-0.01200598958 -0.012427009259 -0.01273641061 -0.01291314073 -0.012939723622 -0.012803298585 -0.01249657719 -0.012018797494 -0.011382603234 
-0.010584231973 -0.0096471679962 -0.0086030793314 -0.0074920551314 -0.0063619333891 -0.0052667702778 -0.0042640596141 -0.0034103180415 -0.0027548766755 
-0.002332187271 -0.0021537242899 -0.0022015853974 -0.0024267517219 -0.0027546867414 -0.0030987551958 -0.0033798417024 -0.00355625866 -0.003638878066 
-0.0036536263951 -0.0036365373997 -0.0036075603845 -0.0050750331303 -0.0051339287612 -0.0052240280718 -0.005337534069 -0.0054658669574 -0.0056075262899 
-0.0057693184107 -0.0059634183844 -0.0062041871314 -0.0065052194267 -0.0068770362467 -0.0073255169073 -0.0078510697132 -0.0084484082783 -0.0091068779672 
-0.0098110825432 -0.010541743365 -0.011276594978 -0.011991307516 -0.012660436623 -0.01325840533 -0.013760545883 -0.01414415422 -0.01438952428 
-0.014480902651 -0.014407364345 -0.014163695268 -0.013751458862 -0.0131683991 -0.012415454334 -0.011513153165 -0.010489219254 -0.0093788493883 
-0.0082244781314 -0.0070748075069 -0.0059827852206 -0.0050022064479 -0.0041827622469 -0.0035637005634 -0.0031668432499 -0.0029904381923 -0.0030059408788 
-0.0031598720216 -0.0033822869605 -0.0036029544357 -0.0037750298733 -0.0038757226045 -0.0039109664665 -0.0039202439679 -0.0039135375462 -0.0048351591123 
-0.004924658333 -0.0050359948008 -0.0051712104425 -0.0053283743606 -0.005510026767 -0.0057253316431 -0.0059879908008 -0.0063128585822 -0.0067128364632 
-0.0071965512308 -0.0077670316063 -0.0084212397203 -0.009150339258 -0.0099403191339 -0.01077290564 -0.011626492184 -0.012477070512 -0.013299188838 
-0.014066912484 -0.014754840012 -0.015339116165 -0.015798390826 -0.016114661843 -0.016274004519 -0.016267240971 -0.016090646738 -0.015746823562 
-0.015221409753 -0.014518815945 -0.013656401974 -0.012657528152 -0.011551951216 -0.010375927718 -0.0091718063382 -0.0079868335605 -0.0068708812208 
-0.005872882395 -0.0050359925368 -0.0043918885118 -0.003955130522 -0.003718984703 -0.0036543297242 -0.0037131691703 -0.0038378040614 -0.0039747979804 
-0.0040871306448 -0.0041750390482 -0.0042226927509 -0.0042408675893 -0.0045943187668 -0.0047149460404 -0.0048485838744 -0.0050125267929 -0.0052108101212 
-0.0054494245338 -0.0057391880869 -0.0060939136704 -0.0065271817517 -0.0070494048353 -0.0076658805841 -0.0083758634106 -0.0091725919967 -0.010043768829 
-0.010972448206 -0.011937955916 -0.012916822276 -0.013883771319 -0.014812687378 -0.015677652551 -0.016453959118 -0.017119026107 -0.017653164117 
-0.018040178582 -0.0182678508 -0.018328404345 -0.018219059708 -0.017942755663 -0.017477058925 -0.016828397711 -0.016011001935 -0.015043721587 
-0.01395053702 -0.012760960694 -0.011510162573 -0.010238598149 -0.0089908772726 -0.007813638611 -0.0067523181168 -0.0058469353677 -0.0051273416316 
-0.0046086936002 -0.0042881368567 -0.0041437668354 -0.0041369329749 -0.0042189975839 -0.0043436821624 -0.0044701254693 -0.0045550995235 -0.0045984062937 
-0.0043918346812 -0.0045392939779 -0.0046990941213 -0.0048989889925 -0.0051497965148 -0.0054603881588 -0.0058420254772 -0.0063071056805 -0.0068663410169 
-0.0075263713053 -0.0082883164425 -0.0091474145466 -0.010093214607 -0.011110319607 -0.012179208953 -0.013277131144 -0.014379112824 -0.015458939938 
-0.01649026142 -0.017447643001 -0.018307494639 -0.019048815787 -0.019653716104 -0.020107760891 -0.020400262587 -0.02052459812 -0.020478635285 
-0.020265278302 -0.019858659665 -0.01926597179 -0.018498448283 -0.017570469958 -0.016500155851 -0.015309996254 -0.014027430379 -0.012685209038 
-0.01132133021 -0.0099783191408 -0.0087016554475 -0.0075372441945 -0.0065279624837 -0.0057094530865 -0.0051054334569 -0.0047228724979 -0.0045476266474 
-0.0045420162319 -0.004647860249 -0.0047970050962 -0.0049310565165 -0.0050023636723 -0.0042712052067 -0.0044427935915 -0.0046291619209 -0.0048702685523 
-0.0051823110984 -0.005575762234 -0.006060988247 -0.0066476079938 -0.0073423901114 -0.0081474890367 -0.0090596771434 -0.010070175957 -0.01116514012 
-0.012326292943 -0.013531704851 -0.014756776238 -0.015975218363 -0.017160238701 -0.018285668271 -0.019326950944 -0.020261930021 -0.021071342158 
-0.021739100452 -0.022252483839 -0.022602281732 -0.022782991238 -0.022793065843 -0.022635242503 -0.022284630619 -0.02174831948 -0.021034746392 
-0.020154062606 -0.019118736852 -0.017944321575 -0.016650342666 -0.015261232402 -0.013807173116 -0.012324667089 -0.010856602739 -0.0094515538736 
-0.0081620101344 -0.0070411707763 -0.0061378309768 -0.0054888335294 -0.0051088743678 -0.0049790187409 -0.005039827915 -0.0052012118837 -0.0053763058758 
-0.0054748284131 -0.0042732012645 -0.0044629854059 -0.0046755667549 -0.0049610565722 -0.005339410656 -0.0058214144943 -0.0064153563429 -0.0071272158722 
-0.0079592853311 -0.0089091823872 -0.0099693719825 -0.011127331278 -0.012365945718 -0.013664098289 -0.014997562494 -0.016339948118 -0.01766395071 
-0.018942563714 -0.020150164734 -0.021263390589 -0.022261663868 -0.02312748721 -0.023846607178 -0.024408069723 -0.024804276123 -0.025030995991 
-0.025087378217 -0.024975984009 -0.024676379966 -0.024195155652 -0.023538230499 -0.022711976449 -0.021723753731 -0.020582666745 -0.019300579044 
-0.017893401382 -0.016382618856 -0.014796953713 -0.0131739595 -0.011561202424 -0.010016485214 -0.0086062905325 -0.0074012689057 -0.0064673105302 
-0.0058509733389 -0.0055599613939 -0.0055452953503 -0.0057029970766 -0.0059074350697 -0.0060331926391 -0.0044257130678 -0.0046277088936 -0.0048654096744 
-0.0051961785455 -0.0056420549024 -0.0062129830998 -0.0069144631381 -0.0077484930918 -0.0087129735657 -0.0098011461401 -0.011001474919 -0.012297808343 
-0.013669737311 -0.015093342613 -0.01654206645 -0.017987983733 -0.019403092939 -0.0207605109 -0.02203546526 -0.023205903762 -0.024252857207 
-0.025160652035 -0.025916963682 -0.026512827325 -0.026942511664 -0.027203292088 -0.027295155071 -0.027220511379 -0.026965629785 -0.026536543718 
-0.02593703261 -0.025170361724 -0.024239630697 -0.023148372552 -0.02190150031 -0.020506704943 -0.018976389853 -0.017330153507 -0.015597699033 
-0.013821830975 -0.012060863451 -0.010389274849 -0.0088948174915 -0.0076696832171 -0.0067932706958 -0.0063058896269 -0.0061790498191 -0.0063024580025 
-0.0065158741027 -0.0066861168778 -0.004743847404 -0.0049525612103 -0.0052135305024 -0.0055882335326 -0.0060991856078 -0.0067547066504 -0.0075572841884 
-0.0085051232427 -0.0095920602387 -0.010807343032 -0.012135625774 -0.01355711125 -0.015048119022 -0.016581861968 -0.018129687721 -0.019662435312 
-0.021151730017 -0.022571106322 -0.023896731976 -0.025107879168 -0.026187248246 -0.027121089913 -0.027899259687 -0.028515053921 -0.028964856388 
-0.02924763442 -0.029364309329 -0.029317071103 -0.029100043571 -0.028718680278 -0.028175110119 -0.027470324083 -0.026604242924 -0.025576033754 
-0.024384808112 -0.023030891696 -0.021517862097 -0.019855507149 -0.01806372732 -0.016177143014 -0.014249722678 -0.012358069691 -0.010601085331 
-0.0090927276921 -0.0079440716485 -0.0072322506354 -0.0069601823178 -0.0070277200646 -0.0072569572059 -0.0074584182847 -0.0052296921404 -0.0054403879091 
-0.0057220384276 -0.0061372834623 -0.0067078035238 -0.007439958308 -0.0083334078775 -0.0093830270799 -0.010579053903 -0.011907055928 -0.013347932445 
-0.014878299653 -0.016471175585 -0.01809715216 -0.01972580264 -0.021327064535 -0.02287249071 -0.02433610957 -0.025695025671 -0.026929900307 
-0.028025192169 -0.028969332893 -0.029754605752 -0.030376759807 -0.030834422109 -0.031128325836 -0.031260512195 -0.031232022725 -0.031046275692 
-0.03070713917 -0.030215795213 -0.029571902514 -0.028773402225 -0.027816507287 -0.026696038961 -0.025406353416 -0.023943167199 -0.022306597777 
-0.020505636604 -0.018564014103 -0.01652690599 -0.014467083799 -0.012487900257 -0.01071906073 -0.0093000221032 -0.0083465107095 -0.0079012524963 
-0.0078870272991 -0.0081126406553 -0.0083496763989 -0.0058736678845 -0.0060823423285 -0.0063813845956 -0.0068320927362 -0.0074544848834 -0.0082529476765 
-0.0092247749695 -0.010362023211 -0.011651753293 -0.013076013694 -0.014612067397 -0.016233003026 -0.017908818917 -0.019607868247 -0.021298325919 
-0.022949556784 -0.024533130707 -0.02602355871 -0.02739895971 -0.028641456859 -0.029737537219 -0.0306780354 -0.03145778588 -0.032075026248 
-0.032530529112 -0.032826711691 -0.032966753824 -0.032950793447 -0.032790136238 -0.032486997449 -0.032042239463 -0.031455041994 -0.030722524679 
-0.0298394233 -0.028797998684 -0.027588461869 -0.026200303729 -0.024624999537 -0.022860553925 -0.020918138838 -0.01883054374 -0.016661185495 
-0.014510937544 -0.01251812768 -0.010845227778 -0.0096454022984 -0.0090064217872 -0.0088857494354 -0.0090906782972 -0.009360245439 -0.0066567300363 
-0.0068599383652 -0.0071724387754 -0.0076523904889 -0.0083176987776 -0.0091710235168 -0.01020775743 -0.011417588091 -0.012784654291 -0.014287653355 
-0.015900380492 -0.017592724189 -0.019332132962 -0.021085169431 -0.022818987245 -0.02450251627 -0.026107335352 -0.027608538019 -0.028985318882 
-0.030221560986 -0.031305987304 -0.032231920157 -0.032996735121 -0.033600933263 -0.034047191987 -0.034339368038 -0.034481575386 -0.03447470598 
-0.034333507298 -0.03405989889 -0.033654764636 -0.033117466016 -0.032445288824 -0.031632852823 -0.030671609062 -0.029549678797 -0.02825246147 
-0.026764627315 -0.025074210112 -0.023179416965 -0.021098287778 -0.018880290928 -0.016617208693 -0.014448274454 -0.012551896271 -0.011114740926 
-0.010271628495 -0.010024413122 -0.010192208693 -0.010486399306 -0.0075529462966 -0.0077475618353 -0.0080691247085 -0.0085715346668 -0.009270437814 
-0.010167044707 -0.011255201755 -0.012522508784 -0.013950361226 -0.015514356105 -0.017185186804 -0.01893009853 -0.020714528342 -0.022503689783 
-0.024263932772 -0.025963761564 -0.027574891721 -0.029073060229 -0.030438862343 -0.03165814419 -0.032721941875 -0.033626048205 -0.034370080674 
-0.034956510117 -0.035389566048 -0.03567423526 -0.035815391671 -0.035815304583 -0.035689145513 -0.035438956653 -0.035065969742 -0.03457018492 
-0.033949785558 -0.033200382035 -0.032314163214 -0.031279163072 -0.030079055784 -0.02869415175 -0.027104539646 -0.025296397416 -0.023272143364 
-0.021064060325 -0.01874909783 -0.016459693935 -0.014381981513 -0.0127298409 -0.01168399743 -0.011297753775 -0.011416191911 -0.011733115016 
-0.0085320708161 -0.0087151383949 -0.0090411427989 -0.0095591946748 -0.01028269068 -0.011211534372 -0.012338214466 -0.013648368694 -0.01512090924 
-0.016728710864 -0.018439976604 -0.020219933485 -0.022032522983 -0.023841922764 -0.025613727788 -0.02731617089 -0.028921182293 -0.030405476546 
-0.031751263031 -0.032946433472 -0.033984327681 -0.034862877796 -0.035583656115 -0.036150687414 -0.036569351318 -0.036845428205 -0.036984294862 
-0.036989734086 -0.036875224239 -0.036643070134 -0.036294991084 -0.035831877807 -0.035253246322 -0.034556424387 -0.033735489789 -0.032780086717 
-0.031674440542 -0.030397231622 -0.028923398431 -0.027229273456 -0.025302367182 -0.023156196681 -0.02084850029 -0.018497869091 -0.016289484482 
-0.014456325686 -0.013220774943 -0.012690887661 -0.012749195196 -0.013079507913 -0.009561973896 -0.0097306491408 -0.010056458656 -0.010583710354 
-0.011323516271 -0.012274450562 -0.013427623039 -0.014766873921 -0.01626897055 -0.017904672128 -0.019640375593 -0.02143987786 -0.023266029502 
-0.025082088047 -0.026853066555 -0.028547043314 -0.030136485107 -0.031599327626 -0.032919477255 -0.034086875128 -0.035096829472 -0.035949155286 
-0.036646947425 -0.037195381842 -0.037600601526 -0.037868780492 -0.038005487311 -0.038015870844 -0.037910481548 -0.037691877942 -0.037362293331 
-0.036923548256 -0.036376625614 -0.035720900189 -0.034953011283 -0.034065406245 -0.033044753958 -0.031870744663 -0.030516341672 -0.028951170412 
-0.027150029704 -0.025107885183 -0.022860627935 -0.020507178346 -0.018223317797 -0.016251821097 -0.01484971641 -0.014179309586 -0.014169605322 
-0.014504636807 -0.010610828703 -0.010762242376 -0.011083338719 -0.011613919762 -0.012362653315 -0.013326524361 -0.014495208775 -0.015850960955 
-0.017368927764 -0.019018446573 -0.02076474587 -0.022570672281 -0.024398186778 -0.026209813019 -0.027970154145 -0.029647434627 -0.031214946798 
-0.0326519267 -0.033943997929 -0.035082823912 -0.036065449047 -0.036893150137 -0.037570182359 -0.038102489653 -0.038496555431 -0.038758584272 
-0.03889400534 -0.038909040512 -0.038810887751 -0.038602303098 -0.03828593295 -0.037864424184 -0.037340130305 -0.036714461873 -0.035986826291 
-0.035153111422 -0.034203734111 -0.03312157429 -0.031880709802 -0.030447709341 -0.02878804046 -0.026880053819 -0.024737103161 -0.022434321526 
-0.020130555101 -0.018068657047 -0.0165312216 -0.015730869309 -0.015649064066 -0.015981088885 -0.011649059263 -0.011779648604 -0.01209173402 
-0.012620465868 -0.013371652459 -0.014340318576 -0.015514677901 -0.016875745011 -0.018397678615 -0.02004903898 -0.021794420681 -0.023596002068 
-0.025415059351 -0.027213607259 -0.028956130972 -0.030611336388 -0.032153434032 -0.033562995837 -0.034827053831 -0.035938766537 -0.036896515878 
-0.037702714397 -0.038362416365 -0.03888194433 -0.039267785483 -0.039525826127 -0.039661046323 -0.039680421222 -0.039588081563 -0.039386827041 
-0.039079560037 -0.038669558384 -0.038160317179 -0.037555047019 -0.036855786153 -0.036061982898 -0.035168440876 -0.034162711464 -0.033022566219 
-0.031715154482 -0.030200699374 -0.028444314325 -0.026438071263 -0.024231214839 -0.021959636698 -0.019856951945 -0.018221021714 -0.017307952037 
-0.017154206179 -0.017476900543 -0.012651561987 -0.012754098921 -0.013054087968 -0.013576667559 -0.014324728703 -0.015291040801 -0.016462460349 
-0.01781923171 -0.019335122677 -0.020978477207 -0.022713597319 -0.024502227733 -0.02630521977 -0.028084385976 -0.029804461622 -0.03143477961 
-0.032950515933 -0.034333310801 -0.035571363086 -0.036658954085 -0.037595487761 -0.038384170233 -0.03903049725 -0.039540866508 -0.039921469836 
-0.040177666169 -0.04031374194 -0.040336746337 -0.040249148808 -0.040053230745 -0.039751948482 -0.039349025486 -0.038848842656 -0.038256090101 
-0.037575072452 -0.036808523315 -0.035955688803 -0.035009498761 -0.033953196979 -0.032757643728 -0.031382056696 -0.029782663395 -0.027933212405 
-0.025857067384 -0.023663111113 -0.021567550604 -0.01987288539 -0.018869685587 -0.018648474961 -0.018957289686 -0.013590247934 -0.013668675912 
-0.013946389817 -0.014459272791 -0.015199477987 -0.01615720448 -0.017318329025 -0.018662743631 -0.02016437382 -0.021791735935 -0.0235091021 
-0.025278059743 -0.027059369924 -0.028815032244 -0.030510258877 -0.032115083884 -0.033605457028 -0.03496382366 -0.036179209735 -0.037246689417 
-0.038166355812 -0.038941855047 -0.039578824388 -0.040083455429 -0.040461489726 -0.040717715143 -0.0408560181 -0.040880389794 -0.040797318305 
-0.040605288317 -0.040307576758 -0.039908311362 -0.039412572427 -0.038826185459 -0.038155261957 -0.037405320157 -0.036579665021 -0.035676638748 
-0.034685845658 -0.033584137633 -0.032333558208 -0.030886190599 -0.02920169096 -0.027279507686 -0.025199648975 -0.023154485459 -0.021441046245 
-0.020373976396 -0.020093739074 -0.020386053543 -0.014441262513 -0.01450685796 -0.01475761245 -0.015248884437 -0.015977517734 -0.01692112228 
-0.018065789893 -0.019391112715 -0.02087170023 -0.022476534525 -0.024170128385 -0.025914263878 -0.027670026342 -0.029399912326 -0.031069717555 