# vtk DataFile Version 4.1
vtk output
ASCII
DATASET STRUCTURED_GRID
DIMENSIONS 51 51 1
POINTS 2601 float
0 0 0 0.02 0 0 0.04 0 0 
0.06 0 0 0.08 0 0 0.1 0 0 
0.12 0 0 0.14 0 0 0.16 0 0 
0.18 0 0 0.2 0 0 0.22 0 0 
0.24 0 0 0.26 0 0 0.28 0 0 
0.3 0 0 0.32 0 0 0.34 0 0 
0.36 0 0 0.38 0 0 0.4 0 0 
0.42 0 0 0.44 0 0 0.46 0 0 
0.48 0 0 0.5 0 0 0.52 0 0 
0.54 0 0 0.56 0 0 0.58 0 0 
0.6 0 0 0.62 0 0 0.64 0 0 
0.66 0 0 0.68 0 0 0.7 0 0 
0.72 0 0 0.74 0 0 0.76 0 0 
0.78 0 0 0.8 0 0 0.82 0 0 
0.84 0 0 0.86 0 0 0.88 0 0 
0.9 0 0 0.92 0 0 0.94 0 0 
0.96 0 0 0.98 0 0 1 0 0 
0 0.02 0 0.02 0.02 0 0.04 0.02 0 
0.06 0.02 0 0.08 0.02 0 0.1 0.02 0 
0.12 0.02 0 0.14 0.02 0 0.16 0.02 0 
0.18 0.02 0 0.2 0.02 0 0.22 0.02 0 
0.24 0.02 0 0.26 0.02 0 0.28 0.02 0 
0.3 0.02 0 0.32 0.02 0 0.34 0.02 0 
0.36 0.02 0 0.38 0.02 0 0.4 0.02 0 
0.42 0.02 0 0.44 0.02 0 0.46 0.02 0 
0.48 0.02 0 0.5 0.02 0 0.52 0.02 0 
0.54 0.02 0 0.56 0.02 0 0.58 0.02 0 
0.6 0.02 0 0.62 0.02 0 0.64 0.02 0 
0.66 0.02 0 0.68 0.02 0 0.7 0.02 0 
0.72 0.02 0 0.74 0.02 0 0.76 0.02 0 
0.78 0.02 0 0.8 0.02 0 0.82 0.02 0 
0.84 0.02 0 0.86 0.02 0 0.88 0.02 0 
0.9 0.02 0 0.92 0.02 0 0.94 0.02 0 
0.96 0.02 0 0.98 0.02 0 1 0.02 0 
0 0.04 0 0.02 0.04 0 0.04 0.04 0 
0.06 0.04 0 0.08 0.04 0 0.1 0.04 0 
0.12 0.04 0 0.14 0.04 0 0.16 0.04 0 
0.18 0.04 0 0.2 0.04 0 0.22 0.04 0 
0.24 0.04 0 0.26 0.04 0 0.28 0.04 0 
0.3 0.04 0 0.32 0.04 0 0.34 0.04 0 
0.36 0.04 0 0.38 0.04 0 0.4 0.04 0 
0.42 0.04 0 0.44 0.04 0 0.46 0.04 0 
0.48 0.04 0 0.5 0.04 0 0.52 0.04 0 
0.54 0.04 0 0.56 0.04 0 0.58 0.04 0 
0.6 0.04 0 0.62 0.04 0 0.64 0.04 0 
0.66 0.04 0 0.68 0.04 0 0.7 0.04 0 
0.72 0.04 0 0.74 0.04 0 0.76 0.04 0 
0.78 0.04 0 0.8 0.04 0 0.82 0.04 0 
0.84 0.04 0 0.86 0.04 0 0.88 0.04 0 
0.9 0.04 0 0.92 0.04 0 0.94 0.04 0 
0.96 0.04 0 0.98 0.04 0 1 0.04 0 
0 0.06 0 0.02 0.06 0 0.04 0.06 0 
0.06 0.06 0 0.08 0.06 0 0.1 0.06 0 
0.12 0.06 0 0.14 0.06 0 0.16 0.06 0 
0.18 0.06 0 0.2 0.06 0 0.22 0.06 0 
0.24 0.06 0 0.26 0.06 0 0.28 0.06 0 
0.3 0.06 0 0.32 0.06 0 0.34 0.06 0 
0.36 0.06 0 0.38 0.06 0 0.4 0.06 0 
0.42 0.06 0 0.44 0.06 0 0.46 0.06 0 
0.48 0.06 0 0.5 0.06 0 0.52 0.06 0 
0.54 0.06 0 0.56 0.06 0 0.58 0.06 0 
0.6 0.06 0 0.62 0.06 0 0.64 0.06 0 
0.66 0.06 0 0.68 0.06 0 0.7 0.06 0 
0.72 0.06 0 0.74 0.06 0 0.76 0.06 0 
0.78 0.06 0 0.8 0.06 0 0.82 0.06 0 
0.84 0.06 0 0.86 0.06 0 0.88 0.06 0 
0.9 0.06 0 0.92 0.06 0 0.94 0.06 0 
0.96 0.06 0 0.98 0.06 0 1 0.06 0 
0 0.08 0 0.02 0.08 0 0.04 0.08 0 
0.06 0.08 0 0.08 0.08 0 0.1 0.08 0 
0.12 0.08 0 0.14 0.08 0 0.16 0.08 0 
0.18 0.08 0 0.2 0.08 0 0.22 0.08 0 
0.24 0.08 0 0.26 0.08 0 0.28 0.08 0 
0.3 0.08 0 0.32 0.08 0 0.34 0.08 0 
0.36 0.08 0 0.38 0.08 0 0.4 0.08 0 
0.42 0.08 0 0.44 0.08 0 0.46 0.08 0 
0.48 0.08 0 0.5 0.08 0 0.52 0.08 0 
0.54 0.08 0 0.56 0.08 0 0.58 0.08 0 
0.6 0.08 0 0.62 0.08 0 0.64 0.08 0 
0.66 0.08 0 0.68 0.08 0 0.7 0.08 0 
0.72 0.08 0 0.74 0.08 0 0.76 0.08 0 
0.78 0.08 0 0.8 0.08 0 0.82 0.08 0 
0.84 0.08 0 0.86 0.08 0 0.88 0.08 0 
0.9 0.08 0 0.92 0.08 0 0.94 0.08 0 
0.96 0.08 0 0.98 0.08 0 1 0.08 0 
0 0.1 0 0.02 0.1 0 0.04 0.1 0 
0.06 0.1 0 0.08 0.1 0 0.1 0.1 0 
0.12 0.1 0 0.14 0.1 0 0.16 0.1 0 
0.18 0.1 0 0.2 0.1 0 0.22 0.1 0 
0.24 0.1 0 0.26 0.1 0 0.28 0.1 0 
0.3 0.1 0 0.32 0.1 0 0.34 0.1 0 
0.36 0.1 0 0.38 0.1 0 0.4 0.1 0 
0.42 0.1 0 0.44 0.1 0 0.46 0.1 0 
0.48 0.1 0 0.5 0.1 0 0.52 0.1 0 
0.54 0.1 0 0.56 0.1 0 0.58 0.1 0 
0.6 0.1 0 0.62 0.1 0 0.64 0.1 0 
0.66 0.1 0 0.68 0.1 0 0.7 0.1 0 
0.72 0.1 0 0.74 0.1 0 0.76 0.1 0 
0.78 0.1 0 0.8 0.1 0 0.82 0.1 0 
0.84 0.1 0 0.86 0.1 0 0.88 0.1 0 
0.9 0.1 0 0.92 0.1 0 0.94 0.1 0 
0.96 0.1 0 0.98 0.1 0 1 0.1 0 
0 0.12 0 0.02 0.12 0 0.04 0.12 0 
0.06 0.12 0 0.08 0.12 0 0.1 0.12 0 
0.12 0.12 0 0.14 0.12 0 0.16 0.12 0 
0.18 0.12 0 0.2 0.12 0 0.22 0.12 0 
0.24 0.12 0 0.26 0.12 0 0.28 0.12 0 
0.3 0.12 0 0.32 0.12 0 0.34 0.12 0 
0.36 0.12 0 0.38 0.12 0 0.4 0.12 0 
0.42 0.12 0 0.44 0.12 0 0.46 0.12 0 
0.48 0.12 0 0.5 0.12 0 0.52 0.12 0 
0.54 0.12 0 0.56 0.12 0 0.58 0.12 0 
0.6 0.12 0 0.62 0.12 0 0.64 0.12 0 
0.66 0.12 0 0.68 0.12 0 0.7 0.12 0 
0.72 0.12 0 0.74 0.12 0 0.76 0.12 0 
0.78 0.12 0 0.8 0.12 0 0.82 0.12 0 
0.84 0.12 0 0.86 0.12 0 0.88 0.12 0 
0.9 0.12 0 0.92 0.12 0 0.94 0.12 0 
0.96 0.12 0 0.98 0.12 0 1 0.12 0 
0 0.14 0 0.02 0.14 0 0.04 0.14 0 
0.06 0.14 0 0.08 0.14 0 0.1 0.14 0 
0.12 0.14 0 0.14 0.14 0 0.16 0.14 0 
0.18 0.14 0 0.2 0.14 0 0.22 0.14 0 
0.24 0.14 0 0.26 0.14 0 0.28 0.14 0 
0.3 0.14 0 0.32 0.14 0 0.34 0.14 0 
0.36 0.14 0 0.38 0.14 0 0.4 0.14 0 
0.42 0.14 0 0.44 0.14 0 0.46 0.14 0 
0.48 0.14 0 0.5 0.14 0 0.52 0.14 0 
0.54 0.14 0 0.56 0.14 0 0.58 0.14 0 
0.6 0.14 0 0.62 0.14 0 0.64 0.14 0 
0.66 0.14 0 0.68 0.14 0 0.7 0.14 0 
0.72 0.14 0 0.74 0.14 0 0.76 0.14 0 
0.78 0.14 0 0.8 0.14 0 0.82 0.14 0 
0.84 0.14 0 0.86 0.14 0 0.88 0.14 0 
0.9 0.14 0 0.92 0.14 0 0.94 0.14 0 
0.96 0.14 0 0.98 0.14 0 1 0.14 0 
0 0.16 0 0.02 0.16 0 0.04 0.16 0 
0.06 0.16 0 0.08 0.16 0 0.1 0.16 0 
0.12 0.16 0 0.14 0.16 0 0.16 0.16 0 
0.18 0.16 0 0.2 0.16 0 0.22 0.16 0 
0.24 0.16 0 0.26 0.16 0 0.28 0.16 0 
0.3 0.16 0 0.32 0.16 0 0.34 0.16 0 
0.36 0.16 0 0.38 0.16 0 0.4 0.16 0 
0.42 0.16 0 0.44 0.16 0 0.46 0.16 0 
0.48 0.16 0 0.5 0.16 0 0.52 0.16 0 
0.54 0.16 0 0.56 0.16 0 0.58 0.16 0 
0.6 0.16 0 0.62 0.16 0 0.64 0.16 0 
0.66 0.16 0 0.68 0.16 0 0.7 0.16 0 
0.72 0.16 0 0.74 0.16 0 0.76 0.16 0 
0.78 0.16 0 0.8 0.16 0 0.82 0.16 0 
0.84 0.16 0 0.86 0.16 0 0.88 0.16 0 
0.9 0.16 0 0.92 0.16 0 0.94 0.16 0 
0.96 0.16 0 0.98 0.16 0 1 0.16 0 
0 0.18 0 0.02 0.18 0 0.04 0.18 0 
0.06 0.18 0 0.08 0.18 0 0.1 0.18 0 
0.12 0.18 0 0.14 0.18 0 0.16 0.18 0 
0.18 0.18 0 0.2 0.18 0 0.22 0.18 0 
0.24 0.18 0 0.26 0.18 0 0.28 0.18 0 
0.3 0.18 0 0.32 0.18 0 0.34 0.18 0 
0.36 0.18 0 0.38 0.18 0 0.4 0.18 0 
0.42 0.18 0 0.44 0.18 0 0.46 0.18 0 
0.48 0.18 0 0.5 0.18 0 0.52 0.18 0 
0.54 0.18 0 0.56 0.18 0 0.58 0.18 0 
0.6 0.18 0 0.62 0.18 0 0.64 0.18 0 
0.66 0.18 0 0.68 0.18 0 0.7 0.18 0 
0.72 0.18 0 0.74 0.18 0 0.76 0.18 0 
0.78 0.18 0 0.8 0.18 0 0.82 0.18 0 
0.84 0.18 0 0.86 0.18 0 0.88 0.18 0 
0.9 0.18 0 0.92 0.18 0 0.94 0.18 0 
0.96 0.18 0 0.98 0.18 0 1 0.18 0 
0 0.2 0 0.02 0.2 0 0.04 0.2 0 
0.06 0.2 0 0.08 0.2 0 0.1 0.2 0 
0.12 0.2 0 0.14 0.2 0 0.16 0.2 0 
0.18 0.2 0 0.2 0.2 0 0.22 0.2 0 
0.24 0.2 0 0.26 0.2 0 0.28 0.2 0 
0.3 0.2 0 0.32 0.2 0 0.34 0.2 0 
0.36 0.2 0 0.38 0.2 0 0.4 0.2 0 
0.42 0.2 0 0.44 0.2 0 0.46 0.2 0 
0.48 0.2 0 0.5 0.2 0 0.52 0.2 0 
0.54 0.2 0 0.56 0.2 0 0.58 0.2 0 
0.6 0.2 0 0.62 0.2 0 0.64 0.2 0 
0.66 0.2 0 0.68 0.2 0 0.7 0.2 0 
0.72 0.2 0 0.74 0.2 0 0.76 0.2 0 
0.78 0.2 0 0.8 0.2 0 0.82 0.2 0 
0.84 0.2 0 0.86 0.2 0 0.88 0.2 0 
0.9 0.2 0 0.92 0.2 0 0.94 0.2 0 
0.96 0.2 0 0.98 0.2 0 1 0.2 0 
0 0.22 0 0.02 0.22 0 0.04 0.22 0 
0.06 0.22 0 0.08 0.22 0 0.1 0.22 0 
0.12 0.22 0 0.14 0.22 0 0.16 0.22 0 
0.18 0.22 0 0.2 0.22 0 0.22 0.22 0 
0.24 0.22 0 0.26 0.22 0 0.28 0.22 0 
0.3 0.22 0 0.32 0.22 0 0.34 0.22 0 
0.36 0.22 0 0.38 0.22 0 0.4 0.22 0 
0.42 0.22 0 0.44 0.22 0 0.46 0.22 0 
0.48 0.22 0 0.5 0.22 0 0.52 0.22 0 
0.54 0.22 0 0.56 0.22 0 0.58 0.22 0 
0.6 0.22 0 0.62 0.22 0 0.64 0.22 0 
0.66 0.22 0 0.68 0.22 0 0.7 0.22 0 
0.72 0.22 0 0.74 0.22 0 0.76 0.22 0 
0.78 0.22 0 0.8 0.22 0 0.82 0.22 0 
0.84 0.22 0 0.86 0.22 0 0.88 0.22 0 
0.9 0.22 0 0.92 0.22 0 0.94 0.22 0 
0.96 0.22 0 0.98 0.22 0 1 0.22 0 
0 0.24 0 0.02 0.24 0 0.04 0.24 0 
0.06 0.24 0 0.08 0.24 0 0.1 0.24 0 
0.12 0.24 0 0.14 0.24 0 0.16 0.24 0 
0.18 0.24 0 0.2 0.24 0 0.22 0.24 0 
0.24 0.24 0 0.26 0.24 0 0.28 0.24 0 
0.3 0.24 0 0.32 0.24 0 0.34 0.24 0 
0.36 0.24 0 0.38 0.24 0 0.4 0.24 0 
0.42 0.24 0 0.44 0.24 0 0.46 0.24 0 
0.48 0.24 0 0.5 0.24 0 0.52 0.24 0 
0.54 0.24 0 0.56 0.24 0 0.58 0.24 0 
0.6 0.24 0 0.62 0.24 0 0.64 0.24 0 
0.66 0.24 0 0.68 0.24 0 0.7 0.24 0 
0.72 0.24 0 0.74 0.24 0 0.76 0.24 0 
0.78 0.24 0 0.8 0.24 0 0.82 0.24 0 
0.84 0.24 0 0.86 0.24 0 0.88 0.24 0 
0.9 0.24 0 0.92 0.24 0 0.94 0.24 0 
0.96 0.24 0 0.98 0.24 0 1 0.24 0 
0 0.26 0 0.02 0.26 0 0.04 0.26 0 
0.06 0.26 0 0.08 0.26 0 0.1 0.26 0 
0.12 0.26 0 0.14 0.26 0 0.16 0.26 0 
0.18 0.26 0 0.2 0.26 0 0.22 0.26 0 
0.24 0.26 0 0.26 0.26 0 0.28 0.26 0 
0.3 0.26 0 0.32 0.26 0 0.34 0.26 0 
0.36 0.26 0 0.38 0.26 0 0.4 0.26 0 
0.42 0.26 0 0.44 0.26 0 0.46 0.26 0 
0.48 0.26 0 0.5 0.26 0 0.52 0.26 0 
0.54 0.26 0 0.56 0.26 0 0.58 0.26 0 
0.6 0.26 0 0.62 0.26 0 0.64 0.26 0 
0.66 0.26 0 0.68 0.26 0 0.7 0.26 0 
0.72 0.26 0 0.74 0.26 0 0.76 0.26 0 
0.78 0.26 0 0.8 0.26 0 0.82 0.26 0 
0.84 0.26 0 0.86 0.26 0 0.88 0.26 0 
0.9 0.26 0 0.92 0.26 0 0.94 0.26 0 
0.96 0.26 0 0.98 0.26 0 1 0.26 0 
0 0.28 0 0.02 0.28 0 0.04 0.28 0 
0.06 0.28 0 0.08 0.28 0 0.1 0.28 0 
0.12 0.28 0 0.14 0.28 0 0.16 0.28 0 
0.18 0.28 0 0.2 0.28 0 0.22 0.28 0 
0.24 0.28 0 0.26 0.28 0 0.28 0.28 0 
0.3 0.28 0 0.32 0.28 0 0.34 0.28 0 
0.36 0.28 0 0.38 0.28 0 0.4 0.28 0 
0.42 0.28 0 0.44 0.28 0 0.46 0.28 0 
0.48 0.28 0 0.5 0.28 0 0.52 0.28 0 
0.54 0.28 0 0.56 0.28 0 0.58 0.28 0 
0.6 0.28 0 0.62 0.28 0 0.64 0.28 0 
0.66 0.28 0 0.68 0.28 0 0.7 0.28 0 
0.72 0.28 0 0.74 0.28 0 0.76 0.28 0 
0.78 0.28 0 0.8 0.28 0 0.82 0.28 0 
0.84 0.28 0 0.86 0.28 0 0.88 0.28 0 
0.9 0.28 0 0.92 0.28 0 0.94 0.28 0 
0.96 0.28 0 0.98 0.28 0 1 0.28 0 
0 0.3 0 0.02 0.3 0 0.04 0.3 0 
0.06 0.3 0 0.08 0.3 0 0.1 0.3 0 
0.12 0.3 0 0.14 0.3 0 0.16 0.3 0 
0.18 0.3 0 0.2 0.3 0 0.22 0.3 0 
0.24 0.3 0 0.26 0.3 0 0.28 0.3 0 
0.3 0.3 0 0.32 0.3 0 0.34 0.3 0 
0.36 0.3 0 0.38 0.3 0 0.4 0.3 0 
0.42 0.3 0 0.44 0.3 0 0.46 0.3 0 
0.48 0.3 0 0.5 0.3 0 0.52 0.3 0 
0.54 0.3 0 0.56 0.3 0 0.58 0.3 0 
0.6 0.3 0 0.62 0.3 0 0.64 0.3 0 
0.66 0.3 0 0.68 0.3 0 0.7 0.3 0 
0.72 0.3 0 0.74 0.3 0 0.76 0.3 0 
0.78 0.3 0 0.8 0.3 0 0.82 0.3 0 
0.84 0.3 0 0.86 0.3 0 0.88 0.3 0 
0.9 0.3 0 0.92 0.3 0 0.94 0.3 0 
0.96 0.3 0 0.98 0.3 0 1 0.3 0 
0 0.32 0 0.02 0.32 0 0.04 0.32 0 
0.06 0.32 0 0.08 0.32 0 0.1 0.32 0 
0.12 0.32 0 0.14 0.32 0 0.16 0.32 0 
0.18 0.32 0 0.2 0.32 0 0.22 0.32 0 
0.24 0.32 0 0.26 0.32 0 0.28 0.32 0 
0.3 0.32 0 0.32 0.32 0 0.34 0.32 0 
0.36 0.32 0 0.38 0.32 0 0.4 0.32 0 
0.42 0.32 0 0.44 0.32 0 0.46 0.32 0 
0.48 0.32 0 0.5 0.32 0 0.52 0.32 0 
0.54 0.32 0 0.56 0.32 0 0.58 0.32 0 
[...]
CELL_DATA 2500
FIELD FieldData 2
pressure 1 2500 double
-0.0032404809533 -0.0032445354121 -0.0032454258342 -0.0032419039004 -0.0032338438743 -0.0032213188865 -0.0032044004104 -0.0031831472307 -0.0031576176697 
-0.0031278772721 -0.0030940023734 -0.0030560818415 -0.0030142181144 -0.0029685279635 -0.0029191431377 -0.0028662109459 -0.0028098947822 -0.0027503746138 
-0.0026878474061 -0.0026225274782 -0.0025546467754 -0.0024844550315 -0.0024122197913 -0.0023382262136 -0.0022627764883 -0.0021861885062 -0.0021087931519 
-0.002030957446 -0.0019530446201 -0.0018754323527 -0.0017985113329 -0.001722682315 -0.0016483535569 -0.0015759381629 -0.0015058511983 -0.0014385065475 
-0.0013743135267 -0.0013136732833 -0.0012569750313 -0.0012045921893 -0.0011568785121 -0.001114164353 -0.0010767533015 -0.0010449197063 -0.0010189082047 
-0.00099893708891 -0.00098520366108 -0.00097785645477 -0.00097675161515 -0.00098043040033 -0.0032364700555 -0.003240544956 -0.0032409409267 -0.003237182148 
-0.003229089035 -0.0032166305591 -0.0031998275157 -0.0031787197236 -0.0031533586125 -0.0031238067455 -0.0030901386611 -0.0030524417692 -0.0030108171264 
-0.0029653801174 -0.0029162610779 -0.0028636058622 -0.002807576388 -0.0027483511189 -0.0026861255019 -0.0026211123313 -0.0025535420303 -0.0024836628292 
-0.0024117408015 -0.0023380597215 -0.0022629206827 -0.0021866414023 -0.0021095574239 -0.002032022831 -0.0019544013345 -0.001877071786 -0.0018004244833 
-0.0017248594399 -0.0016507841415 -0.0015786109791 -0.0015087543901 -0.0014416277237 -0.0013776398521 -0.0013171915645 -0.0012606717892 -0.0012084537079 
-0.0011608908413 -0.0011183132072 -0.0010810236702 -0.0010492945849 -0.0010233645248 -0.0010034332705 -0.00098964687307 -0.00098204644721 -0.00098042830097 
-0.00098413740679 -0.0032357340097 -0.0032403735833 -0.0032408081737 -0.0032370116304 -0.003228918616 -0.0032165018809 -0.003199768368 -0.0031787474173 
-0.0031534843077 -0.0031240378954 -0.003090480139 -0.0030528963415 -0.003011385638 -0.0029660615575 -0.0029170525933 -0.0028645027757 -0.0028085722076 
-0.0027494375712 -0.0026872925779 -0.0026223483624 -0.0025548337937 -0.0024849956787 -0.0024130988573 -0.0023394261833 -0.0022642784155 -0.0021879742172 
-0.0021108514471 -0.0020332543928 -0.0019555511195 -0.0018781218142 -0.0018013580645 -0.0017256612922 -0.0016514406412 -0.0015791104683 -0.0015090874987 
-0.0014417876784 -0.0013776227539 -0.0013169966148 -0.0012603014471 -0.0012079137512 -0.0011601902911 -0.0011174640332 -0.0010800401076 -0.0010481917003 
-0.0010221553885 -0.0010021242873 -0.0009882345842 -0.0009805368896 -0.00097895022339 -0.00098327122831 -0.003239648492 -0.0032446435728 -0.0032452206429 
-0.0032414750115 -0.0032334100092 -0.0032210205622 -0.0032043163911 -0.0031833241948 -0.0031580859132 -0.0031286574264 -0.0030951081075 -0.0030575209153 
-0.0030159927631 -0.0029706350153 -0.002921574042 -0.0028689517839 -0.0028129263078 -0.0027536723316 -0.0026913817171 -0.0026262638944 -0.0025585462026 
-0.0024884741519 -0.0024163115858 -0.0023423407258 -0.0022668621369 -0.0021901947059 -0.0021126753692 -0.0020346526911 -0.0019564954488 -0.00187858585 
-0.0018013182538 -0.0017250974603 -0.0016503365801 -0.0015774545232 -0.0015068731369 -0.0014390140171 -0.0013742950235 -0.001313126532 -0.0012559074695 
-0.0012030211825 -0.0011548311968 -0.001111676918 -0.0010738692894 -0.001041686345 -0.0010153683956 -0.00099511217116 -0.00098106237878 -0.00097329784232 
-0.00097181106974 -0.00097650858201 -0.0032484205221 -0.0032536162518 -0.0032543227292 -0.0032506454961 -0.0032426113882 -0.0032302292729 -0.0032135138824 
-0.0031924922416 -0.0031672047144 -0.0031377049788 -0.0031040600412 -0.0030663504666 -0.0030246707817 -0.0029791299813 -0.0029298520956 -0.0028769767721 
-0.002820659859 -0.0027610739825 -0.0026984090657 -0.0026328727927 -0.0025646910224 -0.0024941081069 -0.0024213870961 -0.0023468098325 -0.002270676914 
-0.0021933074658 -0.0021150391266 -0.0020362274767 -0.0019572430287 -0.0018784712508 -0.0018003108847 -0.0017231720783 -0.0016474741963 -0.0015736432753 
-0.0015021091177 -0.0014333020382 -0.0013676492826 -0.0013055711518 -0.0012474768745 -0.0011937602807 -0.0011447953344 -0.0011009315862 -0.0010624895943 
-0.0010297563414 -0.0010029806261 -0.00098236826142 -0.00096807627225 -0.00096020282899 -0.00095876471032 -0.00096366583115 -0.0032620396383 -0.0032673829714 
-0.0032681979486 -0.0032645818576 -0.0032565661733 -0.0032441651936 -0.0032273964576 -0.0032062873794 -0.0031808772274 -0.0031512178008 -0.0031173738436 
-0.0030794234771 -0.0030374586958 -0.0029915859361 -0.0029419266767 -0.0028886180633 -0.0028318135561 -0.0027716835258 -0.0027084158289 -0.0026422163604 
-0.0025733095152 -0.0025019385652 -0.0024283659473 -0.0023528734193 -0.0022757620474 -0.0021973519685 -0.0021179830299 -0.0020380176048 -0.0019578298855 
-0.0018778102452 -0.0017983635778 -0.001719907404 -0.0016428696583 -0.0015676861108 -0.0014947974074 -0.0014246457299 -0.001357671091 -0.0012943072951 
-0.001234977604 -0.001180090166 -0.0011300332739 -0.001085170531 -0.0010458360137 -0.0010123295278 -0.00098491204642 -0.00096380125355 -0.00094916612272 
-0.00094111575245 -0.00093967024127 -0.00094471276314 -0.0032805064574 -0.0032859936362 -0.0032869079724 -0.0032833418793 -0.0032753265732 -0.0032628773947 
-0.0032460124214 -0.0032247586191 -0.0031991539235 -0.0031692481808 -0.0031351037889 -0.0030967962804 -0.0030544149291 -0.0030080633837 -0.0029578603264 
-0.0029039401852 -0.0028464537826 -0.00278556902 -0.0027214715447 -0.002654365338 -0.0025844732641 -0.0025120375483 -0.0024373201443 -0.0023606029778 
-0.0022821880324 -0.0022023972271 -0.0021215734592 -0.0020400859991 -0.001958314308 -0.0018766552921 -0.0017955217943 -0.0017153407622 -0.0016365510503 
-0.0015596008238 -0.0014849445432 -0.0014130395265 -0.0013443420961 -0.0012793033376 -0.0012183645117 -0.0011619521789 -0.0011104731163 -0.0010643091261 
-0.0010238118496 -0.00098929772041 -0.00096104316681 -0.00093927989108 -0.0009241887077 -0.00091588602945 -0.00091438949074 -0.0009195642605 -0.0033038568676 
-0.0033095024849 -0.0033105165325 -0.003306991424 -0.0032989579029 -0.0032864306818 -0.0032694269665 -0.0032479724081 -0.0032221031334 -0.0031918667396 
-0.0031573230331 -0.003118544717 -0.0030756180768 -0.0030286436846 -0.0029777371676 -0.0029230298975 -0.0028646697788 -0.0028028219986 -0.0027376697317 
-0.0026694148464 -0.0025982785473 -0.0025245019454 -0.0024483465435 -0.0023700946002 -0.002290049349 -0.0022085350411 -0.0021258980789 -0.0020425153097 
-0.0019587726882 -0.0018750751345 -0.0017918451848 -0.0017095212547 -0.0016285554895 -0.0015494111697 -0.0014725596459 -0.0013984767938 -0.0013276389889 
-0.0012605186244 -0.0011975792133 -0.0011392701444 -0.0010860211788 -0.0010382367987 -0.00099629054555 -0.00096051949578 -0.00093121896797 -0.00090863716516 
-0.00089296784037 -0.00088433430816 -0.00088275108016 -0.00088806849994 -0.0033321542517 -0.0033379795302 -0.0033390992483 -0.0033356091155 -0.0033275402121 
-0.0033149061663 -0.0032977225409 -0.0032760130112 -0.0032498113919 -0.0032191626375 -0.0031841236234 -0.0031447638881 -0.0031011663869 -0.0030534283097 
-0.0030016618065 -0.0029459948663 -0.0028865721236 -0.0028235556728 -0.0027571259017 -0.0026874822735 -0.002614844083 -0.0025394511521 -0.0024615644419 
-0.002381466572 -0.0022994622023 -0.0022158782505 -0.0021310648296 -0.0020454073031 -0.001959299122 -0.0018731545465 -0.001787407456 -0.0017025097338 
-0.0016189291953 -0.001537147016 -0.0014576546273 -0.0013809500558 -0.0013075337039 -0.0012379035892 -0.0011725500879 -0.0011119502463 -0.0010565617566 
-0.0010068167262 -0.00096311539122 -0.00092581993323 -0.00089524847846 -0.00087166887525 -0.00085528998439 -0.00084624316092 -0.00084454024603 -0.00085001757632 
-0.0033654832594 -0.0033715123127 -0.0033727470284 -0.0033692885795 -0.0033611692339 -0.0033484014754 -0.0033309988057 -0.0033089824266 -0.0032823833752 
-0.0032512435394 -0.003215616456 -0.0031755680997 -0.0031311777376 -0.0030825386821 -0.0030297592445 -0.0029729635751 -0.0029122925776 -0.0028479048333 
-0.0027799775037 -0.0027087072436 -0.0026343110691 -0.0025570271925 -0.0024771158027 -0.0023948597465 -0.0023105650985 -0.0022245615846 -0.0021372029991 
-0.0020488841862 -0.0019600069152 -0.0018709959598 -0.0017822980804 -0.0016943805659 -0.0016077292714 -0.0015228460942 -0.0014402458437 -0.0013604524721 
-0.001283994649 -0.0012114006937 -0.001143192895 -0.0010798812914 -0.0010219570198 -0.00096988536396 -0.00092409867646 -0.00088498935178 -0.00085290292221 
-0.00082813077317 -0.0008108998681 -0.00080135146675 -0.00079949517801 -0.00080515241211 -0.0034039469622 -0.0034102057283 -0.003411567138 -0.0034081395046 
-0.0033999569994 -0.0033870310123 -0.0033693727023 -0.003347000399 -0.0033199419298 -0.0032882356718 -0.0032519313809 -0.0032110910651 -0.0031657897501 
-0.0031161164815 -0.0030621751833 -0.0030040856544 -0.0029419845475 -0.0028760263772 -0.002806384548 -0.0027332523626 -0.0026568440469 -0.0025773957422 
-0.0024951664474 -0.0024104389098 -0.0023235204172 -0.0022347434485 -0.0021444651804 -0.002053090754 -0.0019610309038 -0.0018687219304 -0.0017766248817 
-0.0016852242899 -0.0015950263655 -0.0015065565695 -0.0014203564944 -0.0013369799991 -0.0012569885742 -0.0011809459273 -0.0011094118255 -0.001042935258 
-0.00098204702171 -0.00092725188968 -0.000879020554 -0.00083778154984 -0.00080391323874 -0.00077773525233 -0.00075949638689 -0.00074935011449 -0.00074730404057 
-0.00075316264637 -0.0034476657198 -0.0034541817289 -0.0034556835487 -0.0034522881547 -0.0034440322646 -0.0034309262256 -0.00341297862 -0.0033902045434 
-0.0033626281886 -0.003330283971 -0.0032932174406 -0.0032514860525 -0.0032051601776 -0.003154323978 -0.0030990764476 -0.0030395324262 -0.0029758236879 
-0.0029081000406 -0.002836530449 -0.0027613042029 -0.0026826320708 -0.0026007474618 -0.0025159075797 -0.0024283945293 -0.0023385163724 -0.0022466080809 
-0.0021530297143 -0.0020581970293 -0.0019625303 -0.0018664781918 -0.0017705172378 -0.0016751508829 -0.0015809079215 -0.0014883402222 -0.0013980196595 
-0.0013105341887 -0.0012264830059 -0.0011464707767 -0.0010711009364 -0.0010009681208 -0.00093664984668 -0.00087869761465 -0.00082762766438 -0.00078391162268 
-0.00074796712369 -0.00072014769315 -0.00070072844087 -0.00068987775801 -0.00068760130444 -0.00069368386785 -0.003496776764 -0.0035035791898 -0.0035052370968 
-0.0035018776796 -0.0034935408267 -0.0034802358814 -0.003461968616 -0.0034387505302 -0.0034106017599 -0.0033775523391 -0.0033396430254 -0.0032969262859 
-0.0032494671924 -0.0031973444573 -0.0031406514791 -0.00307949747 -0.0030140085937 -0.0029443291792 -0.0028706229733 -0.0027930744173 -0.002711889977 
-0.0026272994887 -0.0025395575162 -0.0024489447212 -0.0023557692021 -0.0022603678514 -0.0021631036338 -0.0020644013644 -0.0019646920462 -0.0018644372163 
-0.0017641297997 -0.0016642936126 -0.00156548211 -0.0014682763447 -0.0013732820358 -0.0012811256342 -0.0011924493121 -0.0011079048052 -0.0010281461025 
-0.0009538210385 -0.0008855619105 -0.00082397532724 -0.00076963153177 -0.00072305346642 -0.00068470569609 -0.00065498238266 -0.00063419031021 -0.00062251598887 
-0.00061996308749 -0.00062629325586 -0.003551434112 -0.0035585539251 -0.0035603856443 -0.0035570683681 -0.0035486458079 -0.0035351263354 -0.0035165126626 
-0.0034928123282 -0.0034640410168 -0.0034302238249 -0.0033913962674 -0.0033476051963 -0.0032989097934 -0.0032453826453 -0.0031871108584 -0.003124197226 
-0.0030567614888 -0.0029849416254 -0.0029088952181 -0.002828800885 -0.0027448597594 -0.0026572970336 -0.0025663635587 -0.002472337438 -0.0023755256451 
-0.0022762655891 -0.0021749262661 -0.0020719338754 -0.0019677345279 -0.0018628022612 -0.0017576468599 -0.0016528136206 -0.0015488824965 -0.0014464663962 
-0.0013462084768 -0.0012487782912 -0.001154866632 -0.0010651789814 -0.00098042754418 -0.00090132191216 -0.00082855847426 -0.00076280874717 -0.00070470692638 
-0.00065483701203 -0.00061371965537 -0.00058179777158 -0.00055941628079 -0.00054678364015 -0.00054390141892 -0.00055050395833 -0.0036118086556 -0.0036192788347 
-0.0036213042984 -0.0036180379177 -0.0036095279504 -0.0035957818301 -0.0035767989505 -0.0035525825384 -0.0035231433237 -0.0034885010115 -0.0034486852977 
-0.0034037368078 -0.0033537081908 -0.0032986651839 -0.0032386878039 -0.0031738715995 -0.0031043289575 -0.003030190511 -0.0029516066146 -0.002868748905 
-0.0027818119603 -0.0026910150552 -0.0025966039497 -0.002498852822 -0.0023980662677 -0.0022945812499 -0.0021887690884 -0.0020810595885 -0.0019719117461 
-0.0018618120787 -0.0017512873897 -0.0016409052231 -0.0015312735629 -0.0014230396389 -0.0013168876085 -0.0012135348581 -0.0011137267669 -0.0010182298304 
-0.00092782305742 -0.00084328760111 -0.00076539470773 -0.00069489223852 -0.00063249011054 -0.00057884504836 -0.00053454483505 -0.00050009097169 -0.00047587435578 
-0.00046213002791 -0.00045885731265 -0.00046575822085 -0.0036780883831 -0.0036859441653 -0.0036881857056 -0.0036849817658 -0.0036763859695 -0.0036624048616 
-0.0036430342717 -0.0036182726862 -0.0035881254375 -0.0035526063284 -0.0035117386186 -0.0034655561248 -0.0034141042244 -0.0033574410527 -0.0032956387064 
-0.0032287845523 -0.0031569826249 -0.0030803551032 -0.0029990438996 -0.0029132123595 -0.0028230470976 -0.0027287598814 -0.0026305897829 -0.0025288054104 
-0.0024237071796 -0.0023156297842 -0.0022049447469 -0.0020920838774 -0.0019775183704 -0.001861746226 -0.001745310827 -0.0016288021471 -0.0015128572847 
-0.0013981599573 -0.0012854386594 -0.0011754633084 -0.001069040166 -0.00096700473312 -0.00087021244033 -0.00077952711425 -0.00069580731184 -0.00061989072276 
-0.00055257703072 -0.00049460973153 -0.0004466571472 -0.00040929136703 -0.000382958857 -0.00036792691169 -0.00036419245252 -0.00037141911194 -0.0037504787215 
-0.0037587578893 -0.0037612404734 -0.0037581135335 -0.0037494369999 -0.0037352166307 -0.0037154444079 -0.0036901136705 -0.003659223907 -0.0036227824239 
-0.0035808055276 -0.0035333195004 -0.0034803617659 -0.0034219820356 -0.0033582435977 -0.0032892246609 -0.0032150198087 -0.003135741558 -0.0030515220426 
-0.0029625148582 -0.0028688969451 -0.0027708708694 -0.0026686671179 -0.0025625465647 -0.0024528032798 -0.0023397674312 -0.00222380831 -0.0021053565788 
-0.0019848949171 -0.0018629310586 -0.0017400236862 -0.0016167847642 -0.0014938809603 -0.0013720339644 -0.0012520195317 -0.001134664831 -0.0010208436035 
-0.00091146890969 -0.00080748324022 -0.00070984579421 -0.00061951694177 -0.00053744013092 -0.00046452165266 -0.00040160881209 -0.00034946684592 -0.0003087531692 
-0.0002799816534 -0.00026345887938 -0.00025917922284 -0.00026676060368 -0.0038292030281 -0.0038379462542 -0.0038406977308 -0.003837665576 -0.0038289171545 
-0.0038144575681 -0.0037942746691 -0.003768356275 -0.0037366954951 -0.0036992926729 -0.0036561564885 -0.0036073050762 -0.0035527671268 -0.0034925831208 
-0.0034268066069 -0.003355505602 -0.0032787640811 -0.0031966836007 -0.0031093850865 -0.0030170106414 -0.0029197258644 -0.0028177220547 -0.0027112187864 
-0.0026004668528 -0.0024857513171 -0.0023673949033 -0.0022457616761 -0.0021212769474 -0.0019944335387 -0.0018657462674 -0.0017357871273 -0.0016051885708 
-0.0014746461678 -0.0013449203695 -0.0012168367008 -0.0010912839015 -0.00096920976744 -0.00085161408301 -0.00073953819959 -0.00063405110016 -0.00053623186928 
-0.00044714866008 -0.00036783463724 -0.00029926163512 -0.00024231195727 -0.00019774664941 -0.00016616174719 -0.0001479118916 -0.00014298878846 -0.00015095569856 
-0.003914503268 -0.0039237544885 -0.0039268058471 -0.0039238897277 -0.003915082245 -0.0039003880214 -0.0038797905613 -0.0038532717231 -0.0038208178092 
-0.0037824216149 -0.0037380836395 -0.0036878131743 -0.0036316294556 -0.0035695628817 -0.0035016563283 -0.0034279665525 -0.0033485657188 -0.0032635430842 
-0.0031730066807 -0.0030770855768 -0.002975931886 -0.0028697233632 -0.0027586662592 -0.0026429983706 -0.0025229925895 -0.0023989607635 -0.002271258082 
-0.0021402988168 -0.0020065841078 -0.0018706324022 -0.0017330254704 -0.0015944134083 -0.0014555191237 -0.0013171415237 -0.0011801572256 -0.0010455203109 
-0.00091425912311 -0.00078746965222 -0.00066630502642 -0.00055196047003 -0.00044565345807 -0.00034859927322 -0.00026198244965 -0.00018692483599 -0.00012445082907 
-7.5447960733e-05 -4.0612946049e-05 -2.0359552004e-05 -1.4676756073e-05 -2.3062160729e-05 -0.004006640895 -0.0040164477579 -0.0040198334219 -0.0040170582564 
-0.0040082086803 -0.0039932891392 -0.0039722785572 -0.0039451524706 -0.0039118898953 -0.0038724755827 -0.003826901265 -0.003775166755 -0.0037172810993 
-0.0036532637968 -0.0035831461085 -0.0035069724649 -0.0034248020222 -0.0033367101904 -0.0032427907514 -0.0031431576316 -0.0030379474066 -0.0029273218897 
-0.002811471079 -0.0026906166114 -0.002565015535 -0.0024349648969 -0.0023008062379 -0.0021629359279 -0.0020218611654 -0.00187809864 -0.001732235121 
-0.0015849343322 -0.0014369430402 -0.0012890965983 -0.0011423229485 -0.00099764409591 -0.00085617472109 -0.0007191168358 -0.00058774937178 -0.00046341215095 
-0.00034748383612 -0.00024135366276 -0.00014638735374 -6.388817277e-05 4.9461618623e-06 5.9072801696e-05 9.7670856526e-05 0.00012025335518 0.0001268340301 
0.00011799459827 -0.0041058980435 -0.0041163124211 -0.0041200705358 -0.0041174650843 -0.0041085946672 -0.0040934639566 -0.0040720471386 -0.0040443130715 
-0.004010233065 -0.0039697833552 -0.0039229463718 -0.0038697118477 -0.0038100779518 -0.0037440524952 -0.0036716542192 -0.0035929142083 -0.0035078772618 
-0.0034166037994 -0.003319171415 -0.0032156771559 -0.0031062397719 -0.0029910024499 -0.0028701359288 -0.0027438419972 -0.0026123580226 -0.0024759611422 
-0.0023349747826 -0.0021897676202 -0.0020408502028 -0.0018887309273 -0.0017339951176 -0.0015773135844 -0.001419451681 -0.0012612773154 -0.0011037675656 
-0.00094801340465 -0.00079522080356 -0.00064670709323 -0.00050389162682 -0.00036827942789 -0.00024143684923 -0.00012495895599 -2.0428948347e-05 7.0629469152e-05 
0.00014680589615 0.00020686549963 0.00024983314125 0.0002751305518 0.00028277405573 0.00027344191451 -0.0042125790792 -0.0042236576785 -0.004227830409 
-0.0042254273993 -0.00421656171 -0.0042012388105 -0.0041794280485 -0.0041510913099 -0.0041161918446 -0.0040746969571 -0.0040265793116 -0.0039718180222 
-0.003910399758 -0.0038423199208 -0.0037675839109 -0.0036862083613 -0.0035982227874 -0.0035036709748 -0.0034026129147 -0.0032951267383 -0.0031813111022 
-0.003061287831 -0.0029352049908 -0.0028032410462 -0.0026656083629 -0.0025225598245 -0.0023743941172 -0.0022214427927 -0.0020642145002 -0.0019032010808 
-0.0017389775537 -0.0015722136787 -0.0014036852417 -0.0012342856537 -0.0010650367307 -0.00089709689636 -0.00073176598947 -0.00057048502999 -0.00041482889462 
-0.00026649028338 -0.0001272535957 1.0422574122e-06 0.00011655215656 0.00021748324081 0.00030216247938 0.00036911592367 0.0004171752761 0.00044564755658 
0.00045455157727 0.00044468415138 -0.0043270126597 -0.0043388177264 -0.0043434515396 -0.0043412877235 -0.0043324565739 -0.0043169651222 -0.0042947778894 
-0.0042658495922 -0.004230135143 -0.0041875926012 -0.0041381844936 -0.0040818788719 -0.0040186503838 -0.0039484814096 -0.0038713631729 -0.0037872971363 
-0.0036962962694 -0.003598386593 -0.0034936088593 -0.0033820204809 -0.0032636976924 -0.0031387380651 -0.003007264073 -0.0028694257542 -0.0027254070366 
-0.002575429858 -0.0024197612119 -0.0022586856634 -0.0020927018247 -0.0019222748125 -0.0017479590678 -0.0015704115509 -0.0013904072242 -0.0012088548852 
-0.0010268123291 -0.00084550011359 -0.00066631173303 -0.00049081805832 -0.00032076381578 -0.00015805346412 -4.7240662691e-06 0.00013709652471 0.00026524683938 
0.00037760364229 0.00047216731271 0.00054716371602 0.0006011806821 0.00063338001983 0.00064378277066 0.00063333251964 -0.0044495544223 -0.004462154577 
-0.0044673005167 -0.0044654166095 -0.0044566537829 -0.0044410216722 -0.0044184801478 -0.0043889766734 -0.0043524576865 -0.0043088718134 -0.0042581712026 