# vtk DataFile Version 4.1
vtk output
ASCII
DATASET STRUCTURED_GRID
DIMENSIONS 51 51 1
POINTS 2601 float
0 0 0 0.02 0 0 0.04 0 0 
0.06 0 0 0.08 0 0 0.1 0 0 
0.12 0 0 0.14 0 0 0.16 0 0 
0.18 0 0 0.2 0 0 0.22 0 0 
0.24 0 0 0.26 0 0 0.28 0 0 
0.3 0 0 0.32 0 0 0.34 0 0 
0.36 0 0 0.38 0 0 0.4 0 0 
0.42 0 0 0.44 0 0 0.46 0 0 
0.48 0 0 0.5 0 0 0.52 0 0 
0.54 0 0 0.56 0 0 0.58 0 0 
0.6 0 0 0.62 0 0 0.64 0 0 
0.66 0 0 0.68 0 0 0.7 0 0 
0.72 0 0 0.74 0 0 0.76 0 0 
0.78 0 0 0.8 0 0 0.82 0 0 
0.84 0 0 0.86 0 0 0.88 0 0 
0.9 0 0 0.92 0 0 0.94 0 0 
0.96 0 0 0.98 0 0 1 0 0 
0 0.02 0 0.02 0.02 0 0.04 0.02 0 
0.06 0.02 0 0.08 0.02 0 0.1 0.02 0 
0.12 0.02 0 0.14 0.02 0 0.16 0.02 0 
0.18 0.02 0 0.2 0.02 0 0.22 0.02 0 
0.24 0.02 0 0.26 0.02 0 0.28 0.02 0 
0.3 0.02 0 0.32 0.02 0 0.34 0.02 0 
0.36 0.02 0 0.38 0.02 0 0.4 0.02 0 
0.42 0.02 0 0.44 0.02 0 0.46 0.02 0 
0.48 0.02 0 0.5 0.02 0 0.52 0.02 0 
0.54 0.02 0 0.56 0.02 0 0.58 0.02 0 
0.6 0.02 0 0.62 0.02 0 0.64 0.02 0 
0.66 0.02 0 0.68 0.02 0 0.7 0.02 0 
0.72 0.02 0 0.74 0.02 0 0.76 0.02 0 
0.78 0.02 0 0.8 0.02 0 0.82 0.02 0 
0.84 0.02 0 0.86 0.02 0 0.88 0.02 0 
0.9 0.02 0 0.92 0.02 0 0.94 0.02 0 
0.96 0.02 0 0.98 0.02 0 1 0.02 0 
0 0.04 0 0.02 0.04 0 0.04 0.04 0 
0.06 0.04 0 0.08 0.04 0 0.1 0.04 0 
0.12 0.04 0 0.14 0.04 0 0.16 0.04 0 
0.18 0.04 0 0.2 0.04 0 0.22 0.04 0 
0.24 0.04 0 0.26 0.04 0 0.28 0.04 0 
0.3 0.04 0 0.32 0.04 0 0.34 0.04 0 
0.36 0.04 0 0.38 0.04 0 0.4 0.04 0 
0.42 0.04 0 0.44 0.04 0 0.46 0.04 0 
0.48 0.04 0 0.5 0.04 0 0.52 0.04 0 
0.54 0.04 0 0.56 0.04 0 0.58 0.04 0 
0.6 0.04 0 0.62 0.04 0 0.64 0.04 0 
0.66 0.04 0 0.68 0.04 0 0.7 0.04 0 
0.72 0.04 0 0.74 0.04 0 0.76 0.04 0 
0.78 0.04 0 0.8 0.04 0 0.82 0.04 0 
0.84 0.04 0 0.86 0.04 0 0.88 0.04 0 
0.9 0.04 0 0.92 0.04 0 0.94 0.04 0 
0.96 0.04 0 0.98 0.04 0 1 0.04 0 
0 0.06 0 0.02 0.06 0 0.04 0.06 0 
0.06 0.06 0 0.08 0.06 0 0.1 0.06 0 
0.12 0.06 0 0.14 0.06 0 0.16 0.06 0 
0.18 0.06 0 0.2 0.06 0 0.22 0.06 0 
0.24 0.06 0 0.26 0.06 0 0.28 0.06 0 
0.3 0.06 0 0.32 0.06 0 0.34 0.06 0 
0.36 0.06 0 0.38 0.06 0 0.4 0.06 0 
0.42 0.06 0 0.44 0.06 0 0.46 0.06 0 
0.48 0.06 0 0.5 0.06 0 0.52 0.06 0 
0.54 0.06 0 0.56 0.06 0 0.58 0.06 0 
0.6 0.06 0 0.62 0.06 0 0.64 0.06 0 
0.66 0.06 0 0.68 0.06 0 0.7 0.06 0 
0.72 0.06 0 0.74 0.06 0 0.76 0.06 0 
0.78 0.06 0 0.8 0.06 0 0.82 0.06 0 
0.84 0.06 0 0.86 0.06 0 0.88 0.06 0 
0.9 0.06 0 0.92 0.06 0 0.94 0.06 0 
0.96 0.06 0 0.98 0.06 0 1 0.06 0 
0 0.08 0 0.02 0.08 0 0.04 0.08 0 
0.06 0.08 0 0.08 0.08 0 0.1 0.08 0 
0.12 0.08 0 0.14 0.08 0 0.16 0.08 0 
0.18 0.08 0 0.2 0.08 0 0.22 0.08 0 
0.24 0.08 0 0.26 0.08 0 0.28 0.08 0 
0.3 0.08 0 0.32 0.08 0 0.34 0.08 0 
0.36 0.08 0 0.38 0.08 0 0.4 0.08 0 
0.42 0.08 0 0.44 0.08 0 0.46 0.08 0 
0.48 0.08 0 0.5 0.08 0 0.52 0.08 0 
0.54 0.08 0 0.56 0.08 0 0.58 0.08 0 
0.6 0.08 0 0.62 0.08 0 0.64 0.08 0 
0.66 0.08 0 0.68 0.08 0 0.7 0.08 0 
0.72 0.08 0 0.74 0.08 0 0.76 0.08 0 
0.78 0.08 0 0.8 0.08 0 0.82 0.08 0 
0.84 0.08 0 0.86 0.08 0 0.88 0.08 0 
0.9 0.08 0 0.92 0.08 0 0.94 0.08 0 
0.96 0.08 0 0.98 0.08 0 1 0.08 0 
0 0.1 0 0.02 0.1 0 0.04 0.1 0 
0.06 0.1 0 0.08 0.1 0 0.1 0.1 0 
0.12 0.1 0 0.14 0.1 0 0.16 0.1 0 
0.18 0.1 0 0.2 0.1 0 0.22 0.1 0 
0.24 0.1 0 0.26 0.1 0 0.28 0.1 0 
0.3 0.1 0 0.32 0.1 0 0.34 0.1 0 
0.36 0.1 0 0.38 0.1 0 0.4 0.1 0 
0.42 0.1 0 0.44 0.1 0 0.46 0.1 0 
0.48 0.1 0 0.5 0.1 0 0.52 0.1 0 
0.54 0.1 0 0.56 0.1 0 0.58 0.1 0 
0.6 0.1 0 0.62 0.1 0 0.64 0.1 0 
0.66 0.1 0 0.68 0.1 0 0.7 0.1 0 
0.72 0.1 0 0.74 0.1 0 0.76 0.1 0 
0.78 0.1 0 0.8 0.1 0 0.82 0.1 0 
0.84 0.1 0 0.86 0.1 0 0.88 0.1 0 
0.9 0.1 0 0.92 0.1 0 0.94 0.1 0 
0.96 0.1 0 0.98 0.1 0 1 0.1 0 
0 0.12 0 0.02 0.12 0 0.04 0.12 0 
0.06 0.12 0 0.08 0.12 0 0.1 0.12 0 
0.12 0.12 0 0.14 0.12 0 0.16 0.12 0 
0.18 0.12 0 0.2 0.12 0 0.22 0.12 0 
0.24 0.12 0 0.26 0.12 0 0.28 0.12 0 
0.3 0.12 0 0.32 0.12 0 0.34 0.12 0 
0.36 0.12 0 0.38 0.12 0 0.4 0.12 0 
0.42 0.12 0 0.44 0.12 0 0.46 0.12 0 
0.48 0.12 0 0.5 0.12 0 0.52 0.12 0 
0.54 0.12 0 0.56 0.12 0 0.58 0.12 0 
0.6 0.12 0 0.62 0.12 0 0.64 0.12 0 
0.66 0.12 0 0.68 0.12 0 0.7 0.12 0 
0.72 0.12 0 0.74 0.12 0 0.76 0.12 0 
0.78 0.12 0 0.8 0.12 0 0.82 0.12 0 
0.84 0.12 0 0.86 0.12 0 0.88 0.12 0 
0.9 0.12 0 0.92 0.12 0 0.94 0.12 0 
0.96 0.12 0 0.98 0.12 0 1 0.12 0 
0 0.14 0 0.02 0.14 0 0.04 0.14 0 
0.06 0.14 0 0.08 0.14 0 0.1 0.14 0 
0.12 0.14 0 0.14 0.14 0 0.16 0.14 0 
0.18 0.14 0 0.2 0.14 0 0.22 0.14 0 
0.24 0.14 0 0.26 0.14 0 0.28 0.14 0 
0.3 0.14 0 0.32 0.14 0 0.34 0.14 0 
0.36 0.14 0 0.38 0.14 0 0.4 0.14 0 
0.42 0.14 0 0.44 0.14 0 0.46 0.14 0 
0.48 0.14 0 0.5 0.14 0 0.52 0.14 0 
0.54 0.14 0 0.56 0.14 0 0.58 0.14 0 
0.6 0.14 0 0.62 0.14 0 0.64 0.14 0 
0.66 0.14 0 0.68 0.14 0 0.7 0.14 0 
0.72 0.14 0 0.74 0.14 0 0.76 0.14 0 
0.78 0.14 0 0.8 0.14 0 0.82 0.14 0 
0.84 0.14 0 0.86 0.14 0 0.88 0.14 0 
0.9 0.14 0 0.92 0.14 0 0.94 0.14 0 
0.96 0.14 0 0.98 0.14 0 1 0.14 0 
0 0.16 0 0.02 0.16 0 0.04 0.16 0 
0.06 0.16 0 0.08 0.16 0 0.1 0.16 0 
0.12 0.16 0 0.14 0.16 0 0.16 0.16 0 
0.18 0.16 0 0.2 0.16 0 0.22 0.16 0 
0.24 0.16 0 0.26 0.16 0 0.28 0.16 0 
0.3 0.16 0 0.32 0.16 0 0.34 0.16 0 
0.36 0.16 0 0.38 0.16 0 0.4 0.16 0 
0.42 0.16 0 0.44 0.16 0 0.46 0.16 0 
0.48 0.16 0 0.5 0.16 0 0.52 0.16 0 
0.54 0.16 0 0.56 0.16 0 0.58 0.16 0 
0.6 0.16 0 0.62 0.16 0 0.64 0.16 0 
0.66 0.16 0 0.68 0.16 0 0.7 0.16 0 
0.72 0.16 0 0.74 0.16 0 0.76 0.16 0 
0.78 0.16 0 0.8 0.16 0 0.82 0.16 0 
0.84 0.16 0 0.86 0.16 0 0.88 0.16 0 
0.9 0.16 0 0.92 0.16 0 0.94 0.16 0 
0.96 0.16 0 0.98 0.16 0 1 0.16 0 
0 0.18 0 0.02 0.18 0 0.04 0.18 0 
0.06 0.18 0 0.08 0.18 0 0.1 0.18 0 
0.12 0.18 0 0.14 0.18 0 0.16 0.18 0 
0.18 0.18 0 0.2 0.18 0 0.22 0.18 0 
0.24 0.18 0 0.26 0.18 0 0.28 0.18 0 
0.3 0.18 0 0.32 0.18 0 0.34 0.18 0 
0.36 0.18 0 0.38 0.18 0 0.4 0.18 0 
0.42 0.18 0 0.44 0.18 0 0.46 0.18 0 
0.48 0.18 0 0.5 0.18 0 0.52 0.18 0 
0.54 0.18 0 0.56 0.18 0 0.58 0.18 0 
0.6 0.18 0 0.62 0.18 0 0.64 0.18 0 
0.66 0.18 0 0.68 0.18 0 0.7 0.18 0 
0.72 0.18 0 0.74 0.18 0 0.76 0.18 0 
0.78 0.18 0 0.8 0.18 0 0.82 0.18 0 
0.84 0.18 0 0.86 0.18 0 0.88 0.18 0 
0.9 0.18 0 0.92 0.18 0 0.94 0.18 0 
0.96 0.18 0 0.98 0.18 0 1 0.18 0 
0 0.2 0 0.02 0.2 0 0.04 0.2 0 
0.06 0.2 0 0.08 0.2 0 0.1 0.2 0 
0.12 0.2 0 0.14 0.2 0 0.16 0.2 0 
0.18 0.2 0 0.2 0.2 0 0.22 0.2 0 
0.24 0.2 0 0.26 0.2 0 0.28 0.2 0 
0.3 0.2 0 0.32 0.2 0 0.34 0.2 0 
0.36 0.2 0 0.38 0.2 0 0.4 0.2 0 
0.42 0.2 0 0.44 0.2 0 0.46 0.2 0 
0.48 0.2 0 0.5 0.2 0 0.52 0.2 0 
0.54 0.2 0 0.56 0.2 0 0.58 0.2 0 
0.6 0.2 0 0.62 0.2 0 0.64 0.2 0 
0.66 0.2 0 0.68 0.2 0 0.7 0.2 0 
0.72 0.2 0 0.74 0.2 0 0.76 0.2 0 
0.78 0.2 0 0.8 0.2 0 0.82 0.2 0 
0.84 0.2 0 0.86 0.2 0 0.88 0.2 0 
0.9 0.2 0 0.92 0.2 0 0.94 0.2 0 
0.96 0.2 0 0.98 0.2 0 1 0.2 0 
0 0.22 0 0.02 0.22 0 0.04 0.22 0 
0.06 0.22 0 0.08 0.22 0 0.1 0.22 0 
0.12 0.22 0 0.14 0.22 0 0.16 0.22 0 
0.18 0.22 0 0.2 0.22 0 0.22 0.22 0 
0.24 0.22 0 0.26 0.22 0 0.28 0.22 0 
0.3 0.22 0 0.32 0.22 0 0.34 0.22 0 
0.36 0.22 0 0.38 0.22 0 0.4 0.22 0 
0.42 0.22 0 0.44 0.22 0 0.46 0.22 0 
0.48 0.22 0 0.5 0.22 0 0.52 0.22 0 
0.54 0.22 0 0.56 0.22 0 0.58 0.22 0 
0.6 0.22 0 0.62 0.22 0 0.64 0.22 0 
0.66 0.22 0 0.68 0.22 0 0.7 0.22 0 
0.72 0.22 0 0.74 0.22 0 0.76 0.22 0 
0.78 0.22 0 0.8 0.22 0 0.82 0.22 0 
0.84 0.22 0 0.86 0.22 0 0.88 0.22 0 
0.9 0.22 0 0.92 0.22 0 0.94 0.22 0 
0.96 0.22 0 0.98 0.22 0 1 0.22 0 
0 0.24 0 0.02 0.24 0 0.04 0.24 0 
0.06 0.24 0 0.08 0.24 0 0.1 0.24 0 
0.12 0.24 0 0.14 0.24 0 0.16 0.24 0 
0.18 0.24 0 0.2 0.24 0 0.22 0.24 0 
0.24 0.24 0 0.26 0.24 0 0.28 0.24 0 
0.3 0.24 0 0.32 0.24 0 0.34 0.24 0 
0.36 0.24 0 0.38 0.24 0 0.4 0.24 0 
0.42 0.24 0 0.44 0.24 0 0.46 0.24 0 
0.48 0.24 0 0.5 0.24 0 0.52 0.24 0 
0.54 0.24 0 0.56 0.24 0 0.58 0.24 0 
0.6 0.24 0 0.62 0.24 0 0.64 0.24 0 
0.66 0.24 0 0.68 0.24 0 0.7 0.24 0 
0.72 0.24 0 0.74 0.24 0 0.76 0.24 0 
0.78 0.24 0 0.8 0.24 0 0.82 0.24 0 
0.84 0.24 0 0.86 0.24 0 0.88 0.24 0 
0.9 0.24 0 0.92 0.24 0 0.94 0.24 0 
0.96 0.24 0 0.98 0.24 0 1 0.24 0 
0 0.26 0 0.02 0.26 0 0.04 0.26 0 
0.06 0.26 0 0.08 0.26 0 0.1 0.26 0 
0.12 0.26 0 0.14 0.26 0 0.16 0.26 0 
0.18 0.26 0 0.2 0.26 0 0.22 0.26 0 
0.24 0.26 0 0.26 0.26 0 0.28 0.26 0 
0.3 0.26 0 0.32 0.26 0 0.34 0.26 0 
0.36 0.26 0 0.38 0.26 0 0.4 0.26 0 
0.42 0.26 0 0.44 0.26 0 0.46 0.26 0 
0.48 0.26 0 0.5 0.26 0 0.52 0.26 0 
0.54 0.26 0 0.56 0.26 0 0.58 0.26 0 
0.6 0.26 0 0.62 0.26 0 0.64 0.26 0 
0.66 0.26 0 0.68 0.26 0 0.7 0.26 0 
0.72 0.26 0 0.74 0.26 0 0.76 0.26 0 
0.78 0.26 0 0.8 0.26 0 0.82 0.26 0 
0.84 0.26 0 0.86 0.26 0 0.88 0.26 0 
0.9 0.26 0 0.92 0.26 0 0.94 0.26 0 
0.96 0.26 0 0.98 0.26 0 1 0.26 0 
0 0.28 0 0.02 0.28 0 0.04 0.28 0 
0.06 0.28 0 0.08 0.28 0 0.1 0.28 0 
0.12 0.28 0 0.14 0.28 0 0.16 0.28 0 
0.18 0.28 0 0.2 0.28 0 0.22 0.28 0 
0.24 0.28 0 0.26 0.28 0 0.28 0.28 0 
0.3 0.28 0 0.32 0.28 0 0.34 0.28 0 
0.36 0.28 0 0.38 0.28 0 0.4 0.28 0 
0.42 0.28 0 0.44 0.28 0 0.46 0.28 0 
0.48 0.28 0 0.5 0.28 0 0.52 0.28 0 
0.54 0.28 0 0.56 0.28 0 0.58 0.28 0 
0.6 0.28 0 0.62 0.28 0 0.64 0.28 0 
0.66 0.28 0 0.68 0.28 0 0.7 0.28 0 
0.72 0.28 0 0.74 0.28 0 0.76 0.28 0 
0.78 0.28 0 0.8 0.28 0 0.82 0.28 0 
0.84 0.28 0 0.86 0.28 0 0.88 0.28 0 
0.9 0.28 0 0.92 0.28 0 0.94 0.28 0 
0.96 0.28 0 0.98 0.28 0 1 0.28 0 
0 0.3 0 0.02 0.3 0 0.04 0.3 0 
0.06 0.3 0 0.08 0.3 0 0.1 0.3 0 
0.12 0.3 0 0.14 0.3 0 0.16 0.3 0 
0.18 0.3 0 0.2 0.3 0 0.22 0.3 0 
0.24 0.3 0 0.26 0.3 0 0.28 0.3 0 
0.3 0.3 0 0.32 0.3 0 0.34 0.3 0 
0.36 0.3 0 0.38 0.3 0 0.4 0.3 0 
0.42 0.3 0 0.44 0.3 0 0.46 0.3 0 
0.48 0.3 0 0.5 0.3 0 0.52 0.3 0 
0.54 0.3 0 0.56 0.3 0 0.58 0.3 0 
0.6 0.3 0 0.62 0.3 0 0.64 0.3 0 
0.66 0.3 0 0.68 0.3 0 0.7 0.3 0 
0.72 0.3 0 0.74 0.3 0 0.76 0.3 0 
0.78 0.3 0 0.8 0.3 0 0.82 0.3 0 
0.84 0.3 0 0.86 0.3 0 0.88 0.3 0 
0.9 0.3 0 0.92 0.3 0 0.94 0.3 0 
0.96 0.3 0 0.98 0.3 0 1 0.3 0 
0 0.32 0 0.02 0.32 0 0.04 0.32 0 
0.06 0.32 0 0.08 0.32 0 0.1 0.32 0 
0.12 0.32 0 0.14 0.32 0 0.16 0.32 0 
0.18 0.32 0 0.2 0.32 0 0.22 0.32 0 
0.24 0.32 0 0.26 0.32 0 0.28 0.32 0 
0.3 0.32 0 0.32 0.32 0 0.34 0.32 0 
0.36 0.32 0 0.38 0.32 0 0.4 0.32 0 
0.42 0.32 0 0.44 0.32 0 0.46 0.32 0 
0.48 0.32 0 0.5 0.32 0 0.52 0.32 0 
0.54 0.32 0 0.56 0.32 0 0.58 0.32 0 
[...]
CELL_DATA 2500
FIELD FieldData 2
pressure 1 2500 double
-0.0066436113676 -0.0066509495268 -0.0066702565288 -0.0066972871299 -0.0067296377295 -0.006766328955 -0.0068070155416 -0.0068516428563 -0.0069000440441 
-0.0069518300684 -0.0070065154579 -0.0070633817295 -0.0071212717623 -0.0071785180219 -0.0072328479059 -0.0072813184675 -0.0073204092546 -0.0073461322061 
-0.0073540927624 -0.007339516325 -0.0072972407357 -0.0072217730659 -0.0071074505451 -0.0069486967463 -0.0067404395337 -0.0064787101121 -0.0061613874844 
-0.0057889873269 -0.0053655838077 -0.0048997744527 -0.0044112257359 -0.0039185926867 -0.0034419874538 -0.003004506995 -0.0026299690007 -0.0023401600266 
-0.0021516057612 -0.0020724228194 -0.0020997191684 -0.0022179341725 -0.0023983466978 -0.0026119457544 -0.0028296262278 -0.0030280596959 -0.0031923935141 
-0.0033172613539 -0.0034019728413 -0.0034483791135 -0.0034605346484 -0.0034480684133 -0.006634301637 -0.0066434708929 -0.0066616073624 -0.0066862942974 
-0.0067160489705 -0.0067501140567 -0.0067882929155 -0.006830466972 -0.0068764465724 -0.0069260245475 -0.0069787319616 -0.0070336941917 -0.0070896114596 
-0.0071446543906 -0.0071964485482 -0.0072421983516 -0.0072787462421 -0.0073025634032 -0.0073097225636 -0.0072958229987 -0.0072559664791 -0.0071847890735 
-0.0070765750896 -0.0069255996273 -0.0067266185606 -0.0064754349355 -0.0061695686612 -0.0058089645565 -0.0053966464475 -0.0049430240917 -0.0044694610174 
-0.0039899661099 -0.0035251109866 -0.0030976690366 -0.0027309544146 -0.0024461947875 -0.0022594511634 -0.0021783539667 -0.0021996307824 -0.0023082700861 
-0.0024752440783 -0.0026696812483 -0.0028691149625 -0.0030500216095 -0.003199402185 -0.0033127996867 -0.0033904310749 -0.0034347093575 -0.003448763266 
-0.0034357704388 -0.006614349084 -0.0066278547292 -0.0066468359795 -0.0066703121043 -0.0066978347136 -0.0067294898798 -0.0067654442926 -0.0068057762798 
-0.0068505399256 -0.0068995189042 -0.0069520892865 -0.0070072404486 -0.0070634899094 -0.0071189512796 -0.0071714662585 -0.0072186325751 -0.0072577531148 
-0.0072857588622 -0.0072990602092 -0.0072934190139 -0.0072638823852 -0.0072047953439 -0.0071100622432 -0.0069735260288 -0.0067893978963 -0.0065528579122 
-0.0062606999145 -0.0059119150645 -0.0055080120268 -0.0050660196674 -0.0045986617097 -0.0041224371862 -0.0036576670713 -0.0032272615195 -0.0028548848149 
-0.0025623866081 -0.002366644054 -0.0022762463004 -0.0022887875427 -0.0023894413654 -0.0025520416733 -0.0027421622977 -0.0029338080935 -0.0031066642148 
-0.0032455296162 -0.0033486502188 -0.0034179889659 -0.0034569562876 -0.0034680297611 -0.0034505597349 -0.0065880738807 -0.0066072810334 -0.0066280614613 
-0.0066509152106 -0.0066768071831 -0.0067066838933 -0.0067412607257 -0.0067810536931 -0.0068262181419 -0.0068764534486 -0.0069310298183 -0.0069887578039 
-0.0070481762416 -0.0071076867651 -0.0071655374851 -0.0072198173966 -0.0072683194078 -0.0073083013695 -0.0073362699882 -0.0073478308764 -0.0073376272046 
-0.0072995059139 -0.0072267787664 -0.007112561068 -0.0069503203916 -0.006734487528 -0.0064609834232 -0.0061278164937 -0.0057355740179 -0.005301757545 
-0.0048376450885 -0.0043594963834 -0.0038874701404 -0.003444659703 -0.0030553147202 -0.0027423452292 -0.0025241859778 -0.0024115037291 -0.0024041540745 
-0.0024894023091 -0.0026424057307 -0.0028300760246 -0.0030203726368 -0.0031910435208 -0.0033261534496 -0.0034212033958 -0.0034828287886 -0.0035156932762 
-0.003522823846 -0.0035027175704 -0.0065607604303 -0.0065859587029 -0.0066087153582 -0.0066314643006 -0.0066565011331 -0.0066856571333 -0.0067203092988 
-0.0067612638769 -0.0068087170838 -0.0068623151437 -0.0069212115474 -0.0069843482347 -0.0070506188796 -0.0071188401156 -0.0071878346496 -0.0072562420534 
-0.0073221659935 -0.0073829487144 -0.0074349336137 -0.0074733065028 -0.0074921685287 -0.0074846976391 -0.00744340956 -0.0073606446004 -0.0072290668358 
-0.0070421706074 -0.0067948964835 -0.0064843131453 -0.0061101559743 -0.0056861826497 -0.0052257454842 -0.0047438427035 -0.0042599665274 -0.0037970527636 
-0.0033797838712 -0.0030322185407 -0.0027748577926 -0.002621352163 -0.0025753345325 -0.0026281438646 -0.0027584575141 -0.0029350418374 -0.0031230966548 
-0.0032916359216 -0.0034284688366 -0.0035222428279 -0.0035795876435 -0.0036082853434 -0.0036130069432 -0.0035931124878 -0.0065382260668 -0.0065689627913 
-0.0065937168609 -0.0066168860572 -0.006642055826 -0.0066719528394 -0.0067084201033 -0.0067524221272 -0.0068041612401 -0.0068632608647 -0.0069291247103 
-0.0070011052994 -0.0070785541516 -0.007160998646 -0.0072478959861 -0.0073381942586 -0.0074301720819 -0.0075211013622 -0.0076069562818 -0.0076824274836 
-0.0077409883392 -0.0077750560864 -0.0077763805133 -0.0077364166009 -0.0076467681562 -0.007499838319 -0.0072895182529 -0.007011896075 -0.0066659668175 
-0.0062586477981 -0.005806111317 -0.0053215948383 -0.0048233854824 -0.0043337786355 -0.0038775394107 -0.0034798004796 -0.003163409876 -0.002945793548 
-0.0028357242667 -0.0028305765298 -0.0029149605049 -0.0030618239877 -0.0032366975853 -0.0034050993788 -0.003541992131 -0.0036425979076 -0.0037007290323 
-0.0037296009429 -0.0037351587486 -0.0037182575352 -0.0065265305704 -0.0065622595604 -0.0065890435007 -0.0066132589518 -0.0066397874966 -0.0066720306507 
-0.0067120817403 -0.006760948569 -0.0068188837526 -0.0068858526888 -0.0069617029354 -0.0070463288584 -0.007139961506 -0.0072428458895 -0.007354809384 
-0.0074751759349 -0.0076023229591 -0.007733257968 -0.0078636344545 -0.0079876816312 -0.0080982182201 -0.0081869273975 -0.0082446080654 -0.0082615148617 
-0.0082279743587 -0.0081350532189 -0.0079753213271 -0.0077438156843 -0.0074389513426 -0.0070593221608 -0.0066221444267 -0.0061386379742 -0.0056254599262 
-0.0051037868227 -0.0045980708723 -0.0041343184567 -0.0037377850542 -0.0034301350161 -0.0032262649664 -0.0031312641185 -0.0031380812476 -0.0032269309539 
-0.0033672796755 -0.0035233478855 -0.0036632289652 -0.0037680440276 -0.0038377892273 -0.0038739936324 -0.0038850776445 -0.0038738893874 -0.0065320704203 
-0.0065722646639 -0.0066011957209 -0.0066272677555 -0.0066564430069 -0.0066925425227 -0.0067377291357 -0.0067930894104 -0.0068592568374 -0.006936642346 
-0.0070257168681 -0.0071274133902 -0.00724275287 -0.0073724940347 -0.007517112174 -0.0076762315335 -0.0078481481776 -0.0080298591729 -0.0082168081682 
-0.0084027208734 -0.008579770745 -0.0087386800908 -0.0088689239958 -0.0089592620621 -0.008998337632 -0.0089754650707 -0.0088816811163 -0.0087107739359 
-0.0084602864211 -0.0081220133967 -0.0077097033468 -0.0072326074548 -0.0067055345944 -0.006148216526 -0.0055844187961 -0.0050406329895 -0.00454423603 
-0.0041210908606 -0.003792650039 -0.0035728102045 -0.0034648869247 -0.0034594740218 -0.0035340830384 -0.0036558850706 -0.0037889362339 -0.0039052298188 
-0.0039891253799 -0.0040381538636 -0.0040601202767 -0.0040574502244 -0.0065612397031 -0.0066053930175 -0.0066367579386 -0.0066655329861 -0.0066985054157 
-0.0067396731675 -0.0067912930729 -0.0068548199587 -0.0069313000311 -0.0070217996872 -0.007127930574 -0.0072514777652 -0.007394158965 -0.0075576615252 
-0.0077429630205 -0.0079498858516 -0.008177109854 -0.0084217232958 -0.0086788684559 -0.0089418102131 -0.0092018193894 -0.0094482031888 -0.0096687491252 
-0.0098502169258 -0.0099791080711 -0.010042751093 -0.01003034115 -0.0099340251016 -0.0097500171084 -0.0094667685397 -0.0090891734136 -0.0086247949752 
-0.0080866142824 -0.0074926903508 -0.0068656562946 -0.0062318797914 -0.0056201801216 -0.0050600096908 -0.0045790772643 -0.0042004192192 -0.0039390429908 
-0.0037985642486 -0.0037686013437 -0.0038242507894 -0.0039296201484 -0.0040468918666 -0.0041470672211 -0.0042204196387 -0.0042606599729 -0.004269628315 
-0.0066200154066 -0.0066677120331 -0.0067017948857 -0.0067339993942 -0.0067716105384 -0.0068187926682 -0.0068781518271 -0.0069514957131 -0.0070404867102 
-0.0071473543395 -0.0072746007942 -0.0074248609382 -0.0076010094405 -0.0078054333025 -0.0080396419352 -0.0083042538362 -0.0085983698597 -0.0089190574068 
-0.0092612751809 -0.0096175108936 -0.0099775839829 -0.010328998141 -0.010657305677 -0.010946804505 -0.011181635604 -0.011346795768 -0.011429303308 
-0.011419382529 -0.011311513187 -0.011094241619 -0.010759908674 -0.010314701643 -0.0097698368693 -0.009141518263 -0.0084507577484 -0.0077229731944 
-0.0069873326927 -0.006275696409 -0.0056210063675 -0.0050549043306 -0.0046044372602 -0.0042879686768 -0.0041106910402 -0.0040608366241 -0.0041088174222 
-0.0042125409482 -0.0043306752031 -0.0044308818458 -0.0044914702839 -0.0045151244742 -0.0067136510373 -0.0067643807375 -0.006801375449 -0.006837459603 
-0.0068803027368 -0.0069344641099 -0.0070028409916 -0.0070877513022 -0.0071919631693 -0.0073185969488 -0.0074710682432 -0.0076533094075 -0.0078690740521 
-0.0081215884657 -0.0084135351684 -0.0087462985956 -0.0091193188389 -0.0095298189924 -0.0099721857389 -0.010437501473 -0.010913778876 -0.011386156899 
-0.011837485075 -0.012249392102 -0.012603298745 -0.012881599768 -0.013069004534 -0.013153557474 -0.013127777658 -0.01298299179 -0.012697945352 
-0.012277705288 -0.011731885725 -0.011074690709 -0.010324932954 -0.0095060973289 -0.0086463626514 -0.0077783883439 -0.0069386339523 -0.0061658406029 
-0.0054982991081 -0.004969624504 -0.0046029846195 -0.0044044124138 -0.0043571527668 -0.0044208964901 -0.0045410544162 -0.0046649139205 -0.004758389997 
-0.0048017026254 -0.0068462030372 -0.0068993674222 -0.0069392261679 -0.0069793961187 -0.0070281180056 -0.0070902215417 -0.0071689690309 -0.0072676592096 
-0.0073899049563 -0.007539692612 -0.0077217737659 -0.0079410857933 -0.0082024302946 -0.0085105033522 -0.0088690988782 -0.0092803344002 -0.0097441866996 
-0.010257598513 -0.010813709464 -0.011401916687 -0.012007855978 -0.012613803296 -0.013199704224 -0.013744145949 -0.014225616543 -0.014623882451 
-0.014921198352 -0.015103491247 -0.01516144067 -0.015089840499 -0.014856833719 -0.014466077485 -0.013925749113 -0.013247931327 -0.012448779353 
-0.011548946154 -0.01057419237 -0.0095560316372 -0.008532117483 -0.0075458933396 -0.0066448980152 -0.0058770713163 -0.0052845015685 -0.0048945461082 
-0.0047095958297 -0.0046993273689 -0.0048031577773 -0.0049492065425 -0.0050754171931 -0.0051411733752 -0.0070203645241 -0.0070751467244 -0.0071175703142 
-0.0071621291933 -0.0072174069368 -0.0072884551362 -0.0073793418039 -0.0074941185625 -0.0076371173556 -0.007813596846 -0.0080293474887 -0.008290428931 
-0.0086032959316 -0.0089740641019 -0.0094076275767 -0.0099070330146 -0.010472356683 -0.011099563764 -0.011780359948 -0.012501880551 -0.013246835565 
-0.013994466456 -0.014721429749 -0.015403072083 -0.01601493089 -0.016534065981 -0.016940513709 -0.017218561149 -0.017357666989 -0.017353259812 
-0.017171835627 -0.016813114689 -0.016284410821 -0.015595895079 -0.014760855559 -0.013796369731 -0.012724418553 -0.01157332013 -0.010379217241 
-0.0091871080121 -0.008050655028 -0.0070297557649 -0.0061847200896 -0.0055661685529 -0.0052009823907 -0.0050773951724 -0.005137834162 -0.0052930385853 
-0.0054519175889 -0.005544395997 -0.0072372314949 -0.0072925734726 -0.0073373927996 -0.0073866969446 -0.007449200565 -0.0075305552549 -0.007635448766 
-0.0077684329275 -0.0079349522145 -0.008141236765 -0.0083941379122 -0.0087014172456 -0.009071153005 -0.0095108525342 -0.010026693894 -0.010622272557 
-0.011297042662 -0.012045912082 -0.01285858619 -0.013719347125 -0.014607883274 -0.015499986435 -0.016368769229 -0.017186301433 -0.017925104592 
-0.018559830732 -0.019068803235 -0.019435156119 -0.019647726117 -0.019701631068 -0.019566835165 -0.019239869323 -0.0187276276 -0.018038677168 
-0.017183492854 -0.01617519229 -0.015030909087 -0.013773833269 -0.012435760692 -0.01105965451 -0.0097013444998 -0.0084290161842 -0.007318770937 
-0.0064445064197 -0.0058612070038 -0.0055833548103 -0.0055665529255 -0.005710440771 -0.0058933675837 -0.0060221057427 -0.0074962179641 -0.0075512173042 
-0.0075983370868 -0.0076526918675 -0.0077233856213 -0.0078165120831 -0.0079370131711 -0.0080902962173 -0.0082826383555 -0.0085211418966 -0.0088142614435 
-0.0091714324182 -0.0096023023769 -0.01011593231 -0.010719500476 -0.011416394044 -0.012205477702 -0.013080081122 -0.014027291547 -0.015028556373 
-0.0160600778 -0.01709387801 -0.018099510651 -0.019045682899 -0.019902184539 -0.020641740028 -0.021241477108 -0.021684047254 -0.021958230288 
-0.022059075259 -0.021962294078 -0.021663935474 -0.02117084539 -0.020490548531 -0.019631150444 -0.018601835333 -0.017414257903 -0.016084975071 
-0.014638896492 -0.013113357441 -0.011561917699 -0.010056324868 -0.0086844191852 -0.0075413101249 -0.0067115054944 -0.0062419404806 -0.006112437885 
-0.0062235681281 -0.0064299018174 -0.006592078045 -0.0077954153579 -0.0078492914969 -0.0078985535745 -0.0079584912109 -0.0080384337377 -0.0081444942617 
-0.0082821190587 -0.0084573523801 -0.008677062975 -0.0089497129254 -0.0092853333725 -0.0096949574485 -0.010189925532 -0.010780654555 -0.011474548027 
-0.012274895463 -0.01317954916 -0.014179620601 -0.015259734816 -0.016398017267 -0.017566838501 -0.01873449587 -0.019866849182 -0.020929466805 
-0.021889849122 -0.02271925351 -0.023394287827 -0.023897780444 -0.024219047012 -0.024353694525 -0.024284127146 -0.024008748555 -0.023534941998 
-0.02286991969 -0.022020132854 -0.020991392567 -0.019789974168 -0.018425085148 -0.01691289887 -0.015281934149 -0.013578992423 -0.011874000856 
-0.010261114832 -0.0088525435461 -0.0077613062321 -0.0070706873731 -0.0067943831526 -0.0068463525888 -0.0070614144193 -0.0072599936253 -0.0081316464917 
-0.00818360599 -0.0082350236664 -0.008301153858 -0.0083911260583 -0.0085111441577 -0.0086670170165 -0.0088650770219 -0.0091131838786 -0.0094211590705 
-0.0098004986174 -0.010263897514 -0.010824239159 -0.011492554194 -0.012276581582 -0.013179244904 -0.014196715783 -0.015318186369 -0.016525371554 
-0.01779273037 -0.019088928883 -0.020378388709 -0.021623469662 -0.022787002349 -0.023834565088 -0.024736545839 -0.02546963054 -0.02601738846 
-0.026370375253 -0.026525393821 -0.026471730624 -0.026212177737 -0.0257551264 -0.02510827854 -0.024277579051 -0.023266665961 -0.022077373999 
-0.020711859202 -0.019176732021 -0.017489335836 -0.015685647579 -0.013828189551 -0.012011039097 -0.010357616676 -0.0090059260482 -0.0080766147931 
-0.0076245648521 -0.0075899244855 -0.0077973512836 -0.008030646384 -0.0085004847701 -0.0085499169522 -0.0086035825134 -0.0086763042139 -0.0087768910919 
-0.0089115403973 -0.0090860609475 -0.0093073080562 -0.0095841867155 -0.0099277233955 -0.010350878934 -0.010867872785 -0.011492479195 -0.01223634925 
-0.013107474478 -0.014107715202 -0.015231968897 -0.016467166262 -0.017791756745 -0.019176773082 -0.020587111504 -0.021983485375 -0.023325155297 
-0.024572544779 -0.025689810653 -0.026646949999 -0.027421157379 -0.027997370867 -0.028367912877 -0.028531335846 -0.028483477616 -0.028231889972 
-0.027786439338 -0.02715632527 -0.026348358107 -0.025365716492 -0.024207639665 -0.02287065402 -0.021352199379 -0.019657248738 -0.017807757603 
-0.015853604163 -0.013881995613 -0.012020347647 -0.01042584503 -0.0092545397212 -0.0086068635229 -0.0084608068308 -0.0086436872121 -0.0089076350874 
-0.0088965774262 -0.0089430231338 -0.0089989315427 -0.0090784406204 -0.0091899165021 -0.0093392654056 -0.0095323033513 -0.0097765352643 -0.010081750987 
-0.010460112744 -0.010925897321 -0.01149432204 -0.012179868651 -0.012994890319 -0.013946941881 -0.015037236788 -0.016259218017 -0.017597151917 
-0.019026613055 -0.020515305252 -0.022024448151 -0.023511576203 -0.024933210057 -0.026247770613 -0.02741842818 -0.028415132095 -0.029216070608 
-0.02980780915 -0.03018470945 -0.030347540476 -0.030297558765 -0.030046131061 -0.029605127823 -0.028986089521 -0.028198202937 -0.027246366717 
-0.026129671932 -0.02484135887 -0.023371368073 -0.021712512382 -0.019870837105 -0.017879279358 -0.015811649173 -0.013791464562 -0.011987498559 
-0.010586405642 -0.0097352103952 -0.0094590284121 -0.0096021729231 -0.0098927450873 -0.009313841255 -0.0093569368381 -0.009414960811 -0.0095011725656 
-0.0096233358022 -0.0097868890999 -0.0099978185493 -0.010264183199 -0.010596486631 -0.01100788297 -0.011513555024 -0.012129337602 -0.012870576568 
-0.013749741531 -0.014774210956 -0.015944573516 -0.017252333861 -0.01867962824 -0.020199418756 -0.021776069127 -0.023367918049 -0.024929704076 
-0.026415559701 -0.027782461832 -0.028992875101 -0.030017095808 -0.030834363859 -0.031432889891 -0.031809160026 -0.031965904555 -0.031908364681 
-0.031650108447 -0.031205220231 -0.030588421373 -0.029812800209 -0.028886978599 -0.027812522383 -0.026582415682 -0.025181847393 -0.023593173534 
-0.021806340342 -0.019834561169 -0.017732667572 -0.015612411526 -0.013645391365 -0.012041611867 -0.010992234509 -0.010575195949 -0.010665046042 
-0.010973681192 -0.0097457344825 -0.0097851837706 -0.0098449759895 -0.0099374484796 -0.010069550685 -0.01024636667 -0.010474087949 -0.010761041968 
-0.011118346103 -0.011559816498 -0.012101036602 -0.012758573636 -0.01354825248 -0.014482609384 -0.0155690604 -0.016807022046 -0.01818662914 
-0.019688274875 -0.021282229497 -0.022930581187 -0.024589174311 -0.026210337467 -0.027746578775 -0.029153658965 -0.030393801415 -0.031437694511 
-0.032265465037 -0.032866784396 -0.033239469875 -0.033387906926 -0.033319832032 -0.033048986197 -0.032591981852 -0.031967406128 -0.031193165075 
-0.030283230967 -0.02924406004 -0.0280714006 -0.02674917568 -0.025252461317 -0.023556768604 -0.021654717457 -0.019578149457 -0.017419963434 
-0.015345410217 -0.013578699518 -0.012349324406 -0.011789715556 -0.011815831201 -0.01213361257 -0.010185538675 -0.010220991513 -0.010281981429 
-0.010379826073 -0.010520694205 -0.010709497217 -0.010952314932 -0.011257668794 -0.01163703238 -0.012104331654 -0.012675560383 -0.013367845907 
-0.014197122206 -0.015176288941 -0.016312286906 -0.017603738413 -0.019039904469 -0.020599339216 -0.022250788543 -0.023954517984 -0.025664308805 
-0.027331039628 -0.028905841393 -0.030343916195 -0.031607358049 -0.03266700366 -0.033503733447 -0.034107623654 -0.034477100789 -0.034617540708 
-0.034537759294 -0.034250307577 -0.033774490457 -0.033132860495 -0.032348665114 -0.031442189531 -0.030426291462 -0.029302132625 -0.02805611086 
-0.026660157563 -0.025078771776 -0.023285275843 -0.021286568578 -0.019151060335 -0.017028877077 -0.015148218743 -0.013768343819 -0.013073814813 
-0.013030020525 -0.013348528311 -0.010626545311 -0.010657607805 -0.010718928738 -0.010820860392 -0.010969078722 -0.011168121365 -0.011423844306 
-0.011744805362 -0.012142283296 -0.012630233819 -0.013225032966 -0.013943827492 -0.014802860018 -0.015815036384 -0.016986794532 -0.018316559028 
-0.019792622347 -0.021392750287 -0.02308476111 -0.024827493224 -0.026573784588 -0.028273413383 -0.029876948643 -0.031339271492 -0.032622147562 
-0.033696747406 -0.03454356476 -0.035152313325 -0.035521078118 -0.03565500965 -0.035563848653 -0.03525788013 -0.034758920479 -0.034093459719 
-0.033290025963 -0.032375201543 -0.031368979049 -0.030279721444 -0.029099458805 -0.027801546315 -0.026344253298 -0.024684903169 -0.022805801419 
-0.020747317558 -0.018636943237 -0.016696515908 -0.015204539244 -0.014391684107 -0.014276941647 -0.014589163263 -0.011062428034 -0.011088466015 
-0.011148943982 -0.011253522292 -0.011407364071 -0.011614517083 -0.011880539668 -0.012213540861 -0.012624475175 -0.013127358668 -0.013738419392 
-0.014474821103 -0.015352958373 -0.01638528014 -0.017578303583 -0.018930183557 -0.020428986276 -0.022052400577 -0.023767640171 -0.025533284532 
-0.027301745584 -0.029022562448 -0.030646216708 -0.032127161257 -0.033427362372 -0.034517175498 -0.035376252027 -0.035993226576 -0.036364369479 
-0.036493709197 -0.036392657527 -0.036068290204 -0.035544829029 -0.034852382138 -0.034024041164 -0.033092175047 -0.0320837581 -0.031014959715 
-0.029885670151 -0.028674756844 -0.027339574755 -0.025826414594 -0.024095690022 -0.022158665378 -0.020114651204 -0.018169594621 -0.016609795803 