# vtk DataFile Version 4.1
vtk output
ASCII
DATASET STRUCTURED_GRID
DIMENSIONS 51 51 1
POINTS 2601 float
0 0 0 0.02 0 0 0.04 0 0 
0.06 0 0 0.08 0 0 0.1 0 0 
0.12 0 0 0.14 0 0 0.16 0 0 
0.18 0 0 0.2 0 0 0.22 0 0 
0.24 0 0 0.26 0 0 0.28 0 0 
0.3 0 0 0.32 0 0 0.34 0 0 
0.36 0 0 0.38 0 0 0.4 0 0 
0.42 0 0 0.44 0 0 0.46 0 0 
0.48 0 0 0.5 0 0 0.52 0 0 
0.54 0 0 0.56 0 0 0.58 0 0 
0.6 0 0 0.62 0 0 0.64 0 0 
0.66 0 0 0.68 0 0 0.7 0 0 
0.72 0 0 0.74 0 0 0.76 0 0 
0.78 0 0 0.8 0 0 0.82 0 0 
0.84 0 0 0.86 0 0 0.88 0 0 
0.9 0 0 0.92 0 0 0.94 0 0 
0.96 0 0 0.98 0 0 1 0 0 
0 0.02 0 0.02 0.02 0 0.04 0.02 0 
0.06 0.02 0 0.08 0.02 0 0.1 0.02 0 
0.12 0.02 0 0.14 0.02 0 0.16 0.02 0 
0.18 0.02 0 0.2 0.02 0 0.22 0.02 0 
0.24 0.02 0 0.26 0.02 0 0.28 0.02 0 
0.3 0.02 0 0.32 0.02 0 0.34 0.02 0 
0.36 0.02 0 0.38 0.02 0 0.4 0.02 0 
0.42 0.02 0 0.44 0.02 0 0.46 0.02 0 
0.48 0.02 0 0.5 0.02 0 0.52 0.02 0 
0.54 0.02 0 0.56 0.02 0 0.58 0.02 0 
0.6 0.02 0 0.62 0.02 0 0.64 0.02 0 
0.66 0.02 0 0.68 0.02 0 0.7 0.02 0 
0.72 0.02 0 0.74 0.02 0 0.76 0.02 0 
0.78 0.02 0 0.8 0.02 0 0.82 0.02 0 
0.84 0.02 0 0.86 0.02 0 0.88 0.02 0 
0.9 0.02 0 0.92 0.02 0 0.94 0.02 0 
0.96 0.02 0 0.98 0.02 0 1 0.02 0 
0 0.04 0 0.02 0.04 0 0.04 0.04 0 
0.06 0.04 0 0.08 0.04 0 0.1 0.04 0 
0.12 0.04 0 0.14 0.04 0 0.16 0.04 0 
0.18 0.04 0 0.2 0.04 0 0.22 0.04 0 
0.24 0.04 0 0.26 0.04 0 0.28 0.04 0 
0.3 0.04 0 0.32 0.04 0 0.34 0.04 0 
0.36 0.04 0 0.38 0.04 0 0.4 0.04 0 
0.42 0.04 0 0.44 0.04 0 0.46 0.04 0 
0.48 0.04 0 0.5 0.04 0 0.52 0.04 0 
0.54 0.04 0 0.56 0.04 0 0.58 0.04 0 
0.6 0.04 0 0.62 0.04 0 0.64 0.04 0 
0.66 0.04 0 0.68 0.04 0 0.7 0.04 0 
0.72 0.04 0 0.74 0.04 0 0.76 0.04 0 
0.78 0.04 0 0.8 0.04 0 0.82 0.04 0 
0.84 0.04 0 0.86 0.04 0 0.88 0.04 0 
0.9 0.04 0 0.92 0.04 0 0.94 0.04 0 
0.96 0.04 0 0.98 0.04 0 1 0.04 0 
0 0.06 0 0.02 0.06 0 0.04 0.06 0 
0.06 0.06 0 0.08 0.06 0 0.1 0.06 0 
0.12 0.06 0 0.14 0.06 0 0.16 0.06 0 
0.18 0.06 0 0.2 0.06 0 0.22 0.06 0 
0.24 0.06 0 0.26 0.06 0 0.28 0.06 0 
0.3 0.06 0 0.32 0.06 0 0.34 0.06 0 
0.36 0.06 0 0.38 0.06 0 0.4 0.06 0 
0.42 0.06 0 0.44 0.06 0 0.46 0.06 0 
0.48 0.06 0 0.5 0.06 0 0.52 0.06 0 
0.54 0.06 0 0.56 0.06 0 0.58 0.06 0 
0.6 0.06 0 0.62 0.06 0 0.64 0.06 0 
0.66 0.06 0 0.68 0.06 0 0.7 0.06 0 
0.72 0.06 0 0.74 0.06 0 0.76 0.06 0 
0.78 0.06 0 0.8 0.06 0 0.82 0.06 0 
0.84 0.06 0 0.86 0.06 0 0.88 0.06 0 
0.9 0.06 0 0.92 0.06 0 0.94 0.06 0 
0.96 0.06 0 0.98 0.06 0 1 0.06 0 
0 0.08 0 0.02 0.08 0 0.04 0.08 0 
0.06 0.08 0 0.08 0.08 0 0.1 0.08 0 
0.12 0.08 0 0.14 0.08 0 0.16 0.08 0 
0.18 0.08 0 0.2 0.08 0 0.22 0.08 0 
0.24 0.08 0 0.26 0.08 0 0.28 0.08 0 
0.3 0.08 0 0.32 0.08 0 0.34 0.08 0 
0.36 0.08 0 0.38 0.08 0 0.4 0.08 0 
0.42 0.08 0 0.44 0.08 0 0.46 0.08 0 
0.48 0.08 0 0.5 0.08 0 0.52 0.08 0 
0.54 0.08 0 0.56 0.08 0 0.58 0.08 0 
0.6 0.08 0 0.62 0.08 0 0.64 0.08 0 
0.66 0.08 0 0.68 0.08 0 0.7 0.08 0 
0.72 0.08 0 0.74 0.08 0 0.76 0.08 0 
0.78 0.08 0 0.8 0.08 0 0.82 0.08 0 
0.84 0.08 0 0.86 0.08 0 0.88 0.08 0 
0.9 0.08 0 0.92 0.08 0 0.94 0.08 0 
0.96 0.08 0 0.98 0.08 0 1 0.08 0 
0 0.1 0 0.02 0.1 0 0.04 0.1 0 
0.06 0.1 0 0.08 0.1 0 0.1 0.1 0 
0.12 0.1 0 0.14 0.1 0 0.16 0.1 0 
0.18 0.1 0 0.2 0.1 0 0.22 0.1 0 
0.24 0.1 0 0.26 0.1 0 0.28 0.1 0 
0.3 0.1 0 0.32 0.1 0 0.34 0.1 0 
0.36 0.1 0 0.38 0.1 0 0.4 0.1 0 
0.42 0.1 0 0.44 0.1 0 0.46 0.1 0 
0.48 0.1 0 0.5 0.1 0 0.52 0.1 0 
0.54 0.1 0 0.56 0.1 0 0.58 0.1 0 
0.6 0.1 0 0.62 0.1 0 0.64 0.1 0 
0.66 0.1 0 0.68 0.1 0 0.7 0.1 0 
0.72 0.1 0 0.74 0.1 0 0.76 0.1 0 
0.78 0.1 0 0.8 0.1 0 0.82 0.1 0 
0.84 0.1 0 0.86 0.1 0 0.88 0.1 0 
0.9 0.1 0 0.92 0.1 0 0.94 0.1 0 
0.96 0.1 0 0.98 0.1 0 1 0.1 0 
0 0.12 0 0.02 0.12 0 0.04 0.12 0 
0.06 0.12 0 0.08 0.12 0 0.1 0.12 0 
0.12 0.12 0 0.14 0.12 0 0.16 0.12 0 
0.18 0.12 0 0.2 0.12 0 0.22 0.12 0 
0.24 0.12 0 0.26 0.12 0 0.28 0.12 0 
0.3 0.12 0 0.32 0.12 0 0.34 0.12 0 
0.36 0.12 0 0.38 0.12 0 0.4 0.12 0 
0.42 0.12 0 0.44 0.12 0 0.46 0.12 0 
0.48 0.12 0 0.5 0.12 0 0.52 0.12 0 
0.54 0.12 0 0.56 0.12 0 0.58 0.12 0 
0.6 0.12 0 0.62 0.12 0 0.64 0.12 0 
0.66 0.12 0 0.68 0.12 0 0.7 0.12 0 
0.72 0.12 0 0.74 0.12 0 0.76 0.12 0 
0.78 0.12 0 0.8 0.12 0 0.82 0.12 0 
0.84 0.12 0 0.86 0.12 0 0.88 0.12 0 
0.9 0.12 0 0.92 0.12 0 0.94 0.12 0 
0.96 0.12 0 0.98 0.12 0 1 0.12 0 
0 0.14 0 0.02 0.14 0 0.04 0.14 0 
0.06 0.14 0 0.08 0.14 0 0.1 0.14 0 
0.12 0.14 0 0.14 0.14 0 0.16 0.14 0 
0.18 0.14 0 0.2 0.14 0 0.22 0.14 0 
0.24 0.14 0 0.26 0.14 0 0.28 0.14 0 
0.3 0.14 0 0.32 0.14 0 0.34 0.14 0 
0.36 0.14 0 0.38 0.14 0 0.4 0.14 0 
0.42 0.14 0 0.44 0.14 0 0.46 0.14 0 
0.48 0.14 0 0.5 0.14 0 0.52 0.14 0 
0.54 0.14 0 0.56 0.14 0 0.58 0.14 0 
0.6 0.14 0 0.62 0.14 0 0.64 0.14 0 
0.66 0.14 0 0.68 0.14 0 0.7 0.14 0 
0.72 0.14 0 0.74 0.14 0 0.76 0.14 0 
0.78 0.14 0 0.8 0.14 0 0.82 0.14 0 
0.84 0.14 0 0.86 0.14 0 0.88 0.14 0 
0.9 0.14 0 0.92 0.14 0 0.94 0.14 0 
0.96 0.14 0 0.98 0.14 0 1 0.14 0 
0 0.16 0 0.02 0.16 0 0.04 0.16 0 
0.06 0.16 0 0.08 0.16 0 0.1 0.16 0 
0.12 0.16 0 0.14 0.16 0 0.16 0.16 0 
0.18 0.16 0 0.2 0.16 0 0.22 0.16 0 
0.24 0.16 0 0.26 0.16 0 0.28 0.16 0 
0.3 0.16 0 0.32 0.16 0 0.34 0.16 0 
0.36 0.16 0 0.38 0.16 0 0.4 0.16 0 
0.42 0.16 0 0.44 0.16 0 0.46 0.16 0 
0.48 0.16 0 0.5 0.16 0 0.52 0.16 0 
0.54 0.16 0 0.56 0.16 0 0.58 0.16 0 
0.6 0.16 0 0.62 0.16 0 0.64 0.16 0 
0.66 0.16 0 0.68 0.16 0 0.7 0.16 0 
0.72 0.16 0 0.74 0.16 0 0.76 0.16 0 
0.78 0.16 0 0.8 0.16 0 0.82 0.16 0 
0.84 0.16 0 0.86 0.16 0 0.88 0.16 0 
0.9 0.16 0 0.92 0.16 0 0.94 0.16 0 
0.96 0.16 0 0.98 0.16 0 1 0.16 0 
0 0.18 0 0.02 0.18 0 0.04 0.18 0 
0.06 0.18 0 0.08 0.18 0 0.1 0.18 0 
0.12 0.18 0 0.14 0.18 0 0.16 0.18 0 
0.18 0.18 0 0.2 0.18 0 0.22 0.18 0 
0.24 0.18 0 0.26 0.18 0 0.28 0.18 0 
0.3 0.18 0 0.32 0.18 0 0.34 0.18 0 
0.36 0.18 0 0.38 0.18 0 0.4 0.18 0 
0.42 0.18 0 0.44 0.18 0 0.46 0.18 0 
0.48 0.18 0 0.5 0.18 0 0.52 0.18 0 
0.54 0.18 0 0.56 0.18 0 0.58 0.18 0 
0.6 0.18 0 0.62 0.18 0 0.64 0.18 0 
0.66 0.18 0 0.68 0.18 0 0.7 0.18 0 
0.72 0.18 0 0.74 0.18 0 0.76 0.18 0 
0.78 0.18 0 0.8 0.18 0 0.82 0.18 0 
0.84 0.18 0 0.86 0.18 0 0.88 0.18 0 
0.9 0.18 0 0.92 0.18 0 0.94 0.18 0 
0.96 0.18 0 0.98 0.18 0 1 0.18 0 
0 0.2 0 0.02 0.2 0 0.04 0.2 0 
0.06 0.2 0 0.08 0.2 0 0.1 0.2 0 
0.12 0.2 0 0.14 0.2 0 0.16 0.2 0 
0.18 0.2 0 0.2 0.2 0 0.22 0.2 0 
0.24 0.2 0 0.26 0.2 0 0.28 0.2 0 
0.3 0.2 0 0.32 0.2 0 0.34 0.2 0 
0.36 0.2 0 0.38 0.2 0 0.4 0.2 0 
0.42 0.2 0 0.44 0.2 0 0.46 0.2 0 
0.48 0.2 0 0.5 0.2 0 0.52 0.2 0 
0.54 0.2 0 0.56 0.2 0 0.58 0.2 0 
0.6 0.2 0 0.62 0.2 0 0.64 0.2 0 
0.66 0.2 0 0.68 0.2 0 0.7 0.2 0 
0.72 0.2 0 0.74 0.2 0 0.76 0.2 0 
0.78 0.2 0 0.8 0.2 0 0.82 0.2 0 
0.84 0.2 0 0.86 0.2 0 0.88 0.2 0 
0.9 0.2 0 0.92 0.2 0 0.94 0.2 0 
0.96 0.2 0 0.98 0.2 0 1 0.2 0 
0 0.22 0 0.02 0.22 0 0.04 0.22 0 
0.06 0.22 0 0.08 0.22 0 0.1 0.22 0 
0.12 0.22 0 0.14 0.22 0 0.16 0.22 0 
0.18 0.22 0 0.2 0.22 0 0.22 0.22 0 
0.24 0.22 0 0.26 0.22 0 0.28 0.22 0 
0.3 0.22 0 0.32 0.22 0 0.34 0.22 0 
0.36 0.22 0 0.38 0.22 0 0.4 0.22 0 
0.42 0.22 0 0.44 0.22 0 0.46 0.22 0 
0.48 0.22 0 0.5 0.22 0 0.52 0.22 0 
0.54 0.22 0 0.56 0.22 0 0.58 0.22 0 
0.6 0.22 0 0.62 0.22 0 0.64 0.22 0 
0.66 0.22 0 0.68 0.22 0 0.7 0.22 0 
0.72 0.22 0 0.74 0.22 0 0.76 0.22 0 
0.78 0.22 0 0.8 0.22 0 0.82 0.22 0 
0.84 0.22 0 0.86 0.22 0 0.88 0.22 0 
0.9 0.22 0 0.92 0.22 0 0.94 0.22 0 
0.96 0.22 0 0.98 0.22 0 1 0.22 0 
0 0.24 0 0.02 0.24 0 0.04 0.24 0 
0.06 0.24 0 0.08 0.24 0 0.1 0.24 0 
0.12 0.24 0 0.14 0.24 0 0.16 0.24 0 
0.18 0.24 0 0.2 0.24 0 0.22 0.24 0 
0.24 0.24 0 0.26 0.24 0 0.28 0.24 0 
0.3 0.24 0 0.32 0.24 0 0.34 0.24 0 
0.36 0.24 0 0.38 0.24 0 0.4 0.24 0 
0.42 0.24 0 0.44 0.24 0 0.46 0.24 0 
0.48 0.24 0 0.5 0.24 0 0.52 0.24 0 
0.54 0.24 0 0.56 0.24 0 0.58 0.24 0 
0.6 0.24 0 0.62 0.24 0 0.64 0.24 0 
0.66 0.24 0 0.68 0.24 0 0.7 0.24 0 
0.72 0.24 0 0.74 0.24 0 0.76 0.24 0 
0.78 0.24 0 0.8 0.24 0 0.82 0.24 0 
0.84 0.24 0 0.86 0.24 0 0.88 0.24 0 
0.9 0.24 0 0.92 0.24 0 0.94 0.24 0 
0.96 0.24 0 0.98 0.24 0 1 0.24 0 
0 0.26 0 0.02 0.26 0 0.04 0.26 0 
0.06 0.26 0 0.08 0.26 0 0.1 0.26 0 
0.12 0.26 0 0.14 0.26 0 0.16 0.26 0 
0.18 0.26 0 0.2 0.26 0 0.22 0.26 0 
0.24 0.26 0 0.26 0.26 0 0.28 0.26 0 
0.3 0.26 0 0.32 0.26 0 0.34 0.26 0 
0.36 0.26 0 0.38 0.26 0 0.4 0.26 0 
0.42 0.26 0 0.44 0.26 0 0.46 0.26 0 
0.48 0.26 0 0.5 0.26 0 0.52 0.26 0 
0.54 0.26 0 0.56 0.26 0 0.58 0.26 0 
0.6 0.26 0 0.62 0.26 0 0.64 0.26 0 
0.66 0.26 0 0.68 0.26 0 0.7 0.26 0 
0.72 0.26 0 0.74 0.26 0 0.76 0.26 0 
0.78 0.26 0 0.8 0.26 0 0.82 0.26 0 
0.84 0.26 0 0.86 0.26 0 0.88 0.26 0 
0.9 0.26 0 0.92 0.26 0 0.94 0.26 0 
0.96 0.26 0 0.98 0.26 0 1 0.26 0 
0 0.28 0 0.02 0.28 0 0.04 0.28 0 
0.06 0.28 0 0.08 0.28 0 0.1 0.28 0 
0.12 0.28 0 0.14 0.28 0 0.16 0.28 0 
0.18 0.28 0 0.2 0.28 0 0.22 0.28 0 
0.24 0.28 0 0.26 0.28 0 0.28 0.28 0 
0.3 0.28 0 0.32 0.28 0 0.34 0.28 0 
0.36 0.28 0 0.38 0.28 0 0.4 0.28 0 
0.42 0.28 0 0.44 0.28 0 0.46 0.28 0 
0.48 0.28 0 0.5 0.28 0 0.52 0.28 0 
0.54 0.28 0 0.56 0.28 0 0.58 0.28 0 
0.6 0.28 0 0.62 0.28 0 0.64 0.28 0 
0.66 0.28 0 0.68 0.28 0 0.7 0.28 0 
0.72 0.28 0 0.74 0.28 0 0.76 0.28 0 
0.78 0.28 0 0.8 0.28 0 0.82 0.28 0 
0.84 0.28 0 0.86 0.28 0 0.88 0.28 0 
0.9 0.28 0 0.92 0.28 0 0.94 0.28 0 
0.96 0.28 0 0.98 0.28 0 1 0.28 0 
0 0.3 0 0.02 0.3 0 0.04 0.3 0 
0.06 0.3 0 0.08 0.3 0 0.1 0.3 0 
0.12 0.3 0 0.14 0.3 0 0.16 0.3 0 
0.18 0.3 0 0.2 0.3 0 0.22 0.3 0 
0.24 0.3 0 0.26 0.3 0 0.28 0.3 0 
0.3 0.3 0 0.32 0.3 0 0.34 0.3 0 
0.36 0.3 0 0.38 0.3 0 0.4 0.3 0 
0.42 0.3 0 0.44 0.3 0 0.46 0.3 0 
0.48 0.3 0 0.5 0.3 0 0.52 0.3 0 
0.54 0.3 0 0.56 0.3 0 0.58 0.3 0 
0.6 0.3 0 0.62 0.3 0 0.64 0.3 0 
0.66 0.3 0 0.68 0.3 0 0.7 0.3 0 
0.72 0.3 0 0.74 0.3 0 0.76 0.3 0 
0.78 0.3 0 0.8 0.3 0 0.82 0.3 0 
0.84 0.3 0 0.86 0.3 0 0.88 0.3 0 
0.9 0.3 0 0.92 0.3 0 0.94 0.3 0 
0.96 0.3 0 0.98 0.3 0 1 0.3 0 
0 0.32 0 0.02 0.32 0 0.04 0.32 0 
0.06 0.32 0 0.08 0.32 0 0.1 0.32 0 
0.12 0.32 0 0.14 0.32 0 0.16 0.32 0 
0.18 0.32 0 0.2 0.32 0 0.22 0.32 0 
0.24 0.32 0 0.26 0.32 0 0.28 0.32 0 
0.3 0.32 0 0.32 0.32 0 0.34 0.32 0 
0.36 0.32 0 0.38 0.32 0 0.4 0.32 0 
0.42 0.32 0 0.44 0.32 0 0.46 0.32 0 
0.48 0.32 0 0.5 0.32 0 0.52 0.32 0 
0.54 0.32 0 0.56 0.32 0 0.58 0.32 0 
[...]
CELL_DATA 2500
FIELD FieldData 2
pressure 1 2500 double
-0.0057687361282 -0.0057621856115 -0.0057888198165 -0.0058519731346 -0.0059449744103 -0.0060597059241 -0.0061913857552 -0.0063391347605 -0.0065055361287 
-0.0066936418411 -0.0069076126239 -0.0071482820609 -0.0074141461464 -0.0077036083343 -0.0080111857079 -0.0083304592836 -0.008652845503 -0.0089673292858 
-0.0092602885313 -0.009515646138 -0.0097154188649 -0.0098406071014 -0.009872271955 -0.0097926423055 -0.0095861590803 -0.009240461481 -0.0087473934702 
-0.0081041513435 -0.0073146692077 -0.0063913652067 -0.0053588109526 -0.0042737854723 -0.0031769723768 -0.002120812958 -0.0011647516372 -0.00037036356116 
0.00020526712799 0.00051795817643 0.00054587867313 0.00029853017798 -0.00015321241335 -0.00073170109501 -0.0013451917067 -0.0019049159148 -0.0023503375719 
-0.0026670900876 -0.002865133716 -0.0029627290747 -0.0029794846243 -0.0029416100478 -0.0057806852735 -0.0057751536415 -0.0058029755024 -0.0058623321007 
-0.0059472581658 -0.0060515150926 -0.0061722458791 -0.0063091020984 -0.0064655431266 -0.0066421296801 -0.0068445863541 -0.0070726633934 -0.0073254461347 
-0.0076016947735 -0.0078980996509 -0.0082094408243 -0.008527991217 -0.0088430830925 -0.0091410611202 -0.0094056327567 -0.0096185922816 -0.0097607663791 
-0.009813011239 -0.0097571928372 -0.0095771355975 -0.0092595999722 -0.0087953315055 -0.0081801400992 -0.0074159482437 -0.0065121417678 -0.005528517648 
-0.004478470906 -0.0034111786092 -0.0023807743701 -0.0014464339058 -0.0006687004648 -0.00010326108632 0.00020734322292 0.00024337558473 1.7553811505e-05 
-0.00041826977131 -0.00094420678705 -0.0015032417692 -0.0020083374817 -0.0024015415608 -0.0026744148928 -0.0028420103472 -0.0029258367466 -0.0029440885456 
-0.0029052424415 -0.0057631349566 -0.005757495859 -0.0057870786743 -0.0058464270166 -0.0059281368593 -0.0060256101815 -0.0061386442184 -0.0062638745766 
-0.006410147345 -0.0065772742035 -0.0067695851395 -0.0069891353711 -0.0072369762711 -0.0075130963215 -0.0078155102864 -0.0081395510149 -0.0084772980211 
-0.0088174071561 -0.0091453122545 -0.0094438144812 -0.0096938834867 -0.0098755190122 -0.009968647603 -0.0099540426086 -0.0098143206046 -0.0095350344862 
-0.0091057666648 -0.0085209377839 -0.0077792831858 -0.0069258076613 -0.0059683565149 -0.0049393451482 -0.003885710596 -0.0028612867631 -0.0019249197867 
-0.0011367703171 -0.00055240339264 -0.00021476243922 -0.00014459473438 -0.0003306977687 -0.00072273659363 -0.0012312886479 -0.0017527166226 -0.0022265970979 
-0.0025820685535 -0.0028062519278 -0.0029325848186 -0.0029875249502 -0.0029907774551 -0.0029428865917 -0.0057061026796 -0.0057055284431 -0.005740827553 
-0.0058043185654 -0.0058871663877 -0.0059819246811 -0.0060893453046 -0.0062094068359 -0.0063489449395 -0.0065123474941 -0.0067046750598 -0.0069302566423 
-0.0071920775069 -0.0074911731042 -0.0078256997836 -0.0081902160838 -0.0085754261552 -0.0089683010039 -0.0093526178863 -0.0097096650043 -0.010019005094 
-0.010259290228 -0.010409135423 -0.010448132334 -0.010358003273 -0.010123827295 -0.0097352596617 -0.009187834795 -0.0084857826986 -0.0076678979302 
-0.0067338857417 -0.0057203624565 -0.0046721497235 -0.0036413777751 -0.0026854902645 -0.0018636904536 -0.0012314078911 -0.00083274315977 -0.00069138262513 
-0.00080137619471 -0.0011206274376 -0.0015718443393 -0.0020565981536 -0.0024955268481 -0.0028326984418 -0.0030240725902 -0.0031143478758 -0.0031398061564 
-0.0031260778248 -0.0030765252124 -0.0056055800057 -0.0056164112963 -0.0056623920208 -0.0057334664264 -0.005820525471 -0.0059185599694 -0.0060268943883 
-0.006149775014 -0.0062946117373 -0.0064691496441 -0.00668088834 -0.0069360898001 -0.0072387814345 -0.0075897359602 -0.0079857398311 -0.0084192923598 
-0.0088787115329 -0.0093486888998 -0.0098109478632 -0.010244961838 -0.010628701446 -0.010939449962 -0.011154811144 -0.01125385801 -0.01121838042 
-0.011034086025 -0.010691573412 -0.010186790667 -0.0095399438391 -0.0087511426564 -0.0078408924734 -0.0068413681405 -0.005793928333 -0.0047476447165 
-0.0037573266397 -0.0028802718751 -0.002171283854 -0.0016758384713 -0.0014218193284 -0.0014110806824 -0.0016133402722 -0.0019661491899 -0.0023845844634 
-0.0027807726972 -0.0030784154115 -0.0032691238371 -0.0033418254298 -0.0033523054054 -0.0033314240534 -0.0032895636756 -0.0054614956951 -0.0054900869115 
-0.0055497520137 -0.0056319038493 -0.0057296528183 -0.0058371035007 -0.005957051398 -0.0060965386847 -0.0062652553345 -0.0064735736385 -0.0067308912554 
-0.0070442643355 -0.0074171168248 -0.007848426825 -0.0083324404676 -0.0088588089313 -0.0094131852008 -0.0099778764992 -0.010532555136 -0.011054959834 
-0.011521676601 -0.011909122984 -0.012194654217 -0.012357795099 -0.012381431946 -0.01225283608 -0.011964537679 -0.01151518792 -0.010917355962 
-0.010166631165 -0.0092844749499 -0.00830028169 -0.0072516131546 -0.0061835210785 -0.0051470381358 -0.0041964951409 -0.0033853210737 -0.002760193097 
-0.0023538374014 -0.0021774704256 -0.0022148204089 -0.0024204609446 -0.0027249737733 -0.0030475314327 -0.0033144022105 -0.0034864365211 -0.0035711422915 
-0.0035913802957 -0.003579374894 -0.0035529873487 -0.0052798154331 -0.0053317454573 -0.0054092259081 -0.0055064310068 -0.0056189634616 -0.0057459416428 
-0.0058923697263 -0.0060677175413 -0.0062838027196 -0.0065524876745 -0.0068835909061 -0.0072831995842 -0.0077526118756 -0.0082879881717 -0.0088804952676 
-0.009516939944 -0.010180430454 -0.010851097834 -0.011506773488 -0.012123775093 -0.012677866604 -0.013145322191 -0.013504121775 -0.013735047432 
-0.013822612263 -0.013755853389 -0.013529087668 -0.013142814994 -0.012597522834 -0.011890752858 -0.011041542311 -0.010075819616 -0.0090267449999 
-0.0079344609201 -0.0068451255754 -0.0058089680816 -0.004877071916 -0.0040967139399 -0.0035054074194 -0.003124325299 -0.0029524722689 -0.002963562589 
-0.0031076372167 -0.0033189301189 -0.0035309812444 -0.0036985857411 -0.0038002729168 -0.0038390692665 -0.0038510184417 -0.0038453250598 -0.0050766530488 
-0.005156792508 -0.005251747134 -0.0053673813678 -0.0055036973746 -0.005663410397 -0.0058540645707 -0.0060870188748 -0.0063751253175 -0.0067301329788 
-0.0071604676594 -0.0076697459339 -0.0082562377514 -0.0089128932749 -0.0096279622854 -0.010385634667 -0.011166760363 -0.011949520898 -0.012710244959 
-0.01342436379 -0.014067471955 -0.014616497001 -0.015050682352 -0.015352404215 -0.015507822781 -0.01550745715 -0.015346850597 -0.015027464709 
-0.014538685889 -0.013880628668 -0.013069422095 -0.01212705238 -0.011081690381 -0.0099677520877 -0.0088254966114 -0.0076999068876 -0.006638564367 
-0.0056882983032 -0.0048906105129 -0.0042762473307 -0.0038597758073 -0.0036354809586 -0.0035761341865 -0.0036361245387 -0.0037600325928 -0.003895995776 
-0.0040076821567 -0.0040952703245 -0.0041427215304 -0.00416035057 -0.0048781532895 -0.004984487271 -0.0050997819897 -0.0052394348222 -0.005409472689 
-0.0056161414104 -0.0058690359203 -0.0061803598356 -0.0065624563555 -0.007025268767 -0.0075743729132 -0.0082101210007 -0.0089274137816 -0.0097162048796 
-0.010562046115 -0.011446763623 -0.012349114309 -0.013245627952 -0.014111588073 -0.014922136279 -0.015653435304 -0.016283581698 -0.016793341717 
-0.017166661694 -0.017391092279 -0.01745825627 -0.0173644569 -0.017111484108 -0.016681422801 -0.016075716336 -0.015307699036 -0.014395200748 
-0.01336098196 -0.012233107328 -0.011045100185 -0.0098356379316 -0.008647519397 -0.0075256666794 -0.0065140414965 -0.0056515766632 -0.0049675317255 
-0.0044769920124 -0.0041774662254 -0.0040476640941 -0.0040496214245 -0.0041354721115 -0.0042599282678 -0.0043825798218 -0.0044644386274 -0.004505884799 
-0.0047175096876 -0.004848547714 -0.0049854339992 -0.0051545456701 -0.005367843053 -0.0056345089969 -0.0059652625865 -0.0063717398258 -0.0068642716803 
-0.0074496577992 -0.0081299579451 -0.0089019413963 -0.0097573589353 -0.010683309901 -0.011662803675 -0.012675360676 -0.013697849825 -0.014705516262 
-0.015673151774 -0.016576279782 -0.017392061913 -0.018099997129 -0.018682337734 -0.019124425049 -0.019415008378 -0.019546645123 -0.019516257327 
-0.019325731919 -0.018953931947 -0.018402769549 -0.017682851154 -0.016807798451 -0.015794805408 -0.014665286408 -0.013445487309 -0.012166887392 
-0.01086618278 -0.0095846166668 -0.0083664519443 -0.0072564771958 -0.0062965596373 -0.005521395843 -0.0049537416475 -0.0045995296508 -0.004443624801 
-0.0044478953917 -0.0045550536155 -0.0046994057519 -0.0048281051435 -0.0048964640366 -0.0046323681272 -0.0047842801006 -0.0049431442 -0.0051462747893 
-0.0054106290711 -0.0057474100152 -0.0061671923951 -0.0066797500113 -0.007292231589 -0.0080077653047 -0.0088246426277 -0.0097362705619 -0.010731320106 
-0.011794083051 -0.012904965815 -0.014041269128 -0.015178263193 -0.016290408583 -0.01735260217 -0.01834112086 -0.019234330727 -0.020013082536 
-0.020661027226 -0.021164842526 -0.021514501932 -0.021703644349 -0.021729869711 -0.021595060612 -0.021278608347 -0.020782475963 -0.020114645553 
-0.01928471502 -0.018304514583 -0.017188890614 -0.015956615503 -0.014631337621 -0.01324242684 -0.011825532544 -0.010422626451 -0.0090812567188 
-0.0078526926343 -0.0067885931255 -0.005935772061 -0.0053286370272 -0.0049793146252 -0.0048670860893 -0.0049330591876 -0.0050910287187 -0.0052580151316 
-0.0053524486552 -0.004655390804 -0.0048230752754 -0.005003858277 -0.0052442017087 -0.0055648282887 -0.005977745197 -0.0064922605329 -0.0071153073576 
-0.0078504541266 -0.0086970414964 -0.009649822357 -0.010698909895 -0.011829854298 -0.013023990154 -0.014259094186 -0.015510487325 -0.016752267642 
-0.017958647546 -0.019104945779 -0.02016835354 -0.021128379214 -0.021967198847 -0.022669869755 -0.023224561169 -0.023622803159 -0.023859540552 
-0.023933167805 -0.023845516693 -0.023579392498 -0.023136862921 -0.022523540757 -0.021745465346 -0.020809643547 -0.019724819621 -0.018502497533 
-0.017158214528 -0.015713043292 -0.014195227115 -0.012641720697 -0.011099268162 -0.0096244606185 -0.0082819620638 -0.0071397912362 -0.0062603469631 
-0.0056862201295 -0.0054218063422 -0.0054174398525 -0.0055727295867 -0.0057684218518 -0.0058897577978 -0.0048104465888 -0.0049887644046 -0.0051908685473 
-0.0054699552208 -0.0058489477739 -0.0063395393548 -0.0069489371323 -0.0076809465561 -0.0085356157683 -0.0095087491122 -0.010591719019 -0.01177124831 
-0.013029591395 -0.014345017767 -0.015692902088 -0.017046933515 -0.018380550586 -0.019667968668 -0.020885052225 -0.022009832701 -0.023022952082 
-0.023907947036 -0.024651514647 -0.025243735709 -0.025677967146 -0.025950689521 -0.026061192098 -0.026011238968 -0.025788847541 -0.025396619972 
-0.024838219674 -0.024116810651 -0.023235411402 -0.022197492171 -0.021007893335 -0.019674205366 -0.018208700799 -0.016630799104 -0.014969912366 
-0.013268310468 -0.01158330351 -0.0099875831255 -0.0085660090159 -0.0074066208164 -0.0065837329999 -0.0061328468098 -0.0060232731765 -0.0061478279257 
-0.0063543072549 -0.0065174709203 -0.0051109792978 -0.0052951930028 -0.0055174605032 -0.0058349335889 -0.0062711974613 -0.0068367533556 -0.007536457427 
-0.0083711928612 -0.0093377810151 -0.010428790456 -0.011632104033 -0.012930924331 -0.014304066743 -0.015726985651 -0.017172948259 -0.018614541197 
-0.020024727974 -0.021377849961 -0.022650214537 -0.023820683004 -0.024871091517 -0.025786604034 -0.026555998397 -0.027171499238 -0.027628532261 
-0.027925227782 -0.028061828144 -0.028040108287 -0.027854049409 -0.027507277148 -0.027002027101 -0.026339419002 -0.025519524397 -0.024541635523 
-0.023404944619 -0.022109827612 -0.020659895477 -0.019064956987 -0.017344886492 -0.015534099715 -0.013685912298 -0.011875429797 -0.010198762696 
-0.008765470202 -0.0076807855829 -0.0070156711327 -0.0067690021756 -0.006842069769 -0.0070646274417 -0.0072582240381 -0.0055595008681 -0.0057455375666 
-0.0059861585083 -0.0063397711738 -0.0068293272307 -0.0074637404153 -0.0082457536701 -0.0091736649699 -0.010241492355 -0.011438502221 -0.01274904148 
-0.014152662823 -0.015625033662 -0.017139090318 -0.018666561234 -0.020179080665 -0.021649292545 -0.023051518573 -0.0243625153 -0.025562066793 
-0.026633469497 -0.027563955564 -0.028344542839 -0.028969805591 -0.029437279336 -0.029746739023 -0.029899415926 -0.029897334293 -0.029740283534 
-0.029433079043 -0.028977117449 -0.028372349375 -0.027616991454 -0.026707476211 -0.025638781096 -0.024405359187 -0.023003011118 -0.021431981707 
-0.019701429067 -0.017835174412 -0.015878142302 -0.013902072121 -0.012007934645 -0.010321187669 -0.008975083525 -0.0080780585251 -0.0076668689311 
-0.0076635744101 -0.0078841256085 -0.0081119884246 -0.0061484927536 -0.0063329015261 -0.0065893380109 -0.0069751572613 -0.0075118405237 -0.0082067990832 
-0.0090609783939 -0.010070558975 -0.01122677541 -0.012515615862 -0.013917814776 -0.015409605728 -0.016963874586 -0.018551642991 -0.020143283849 
-0.021709670237 -0.023222960318 -0.024657502769 -0.025990628156 -0.027203294997 -0.028280709624 -0.02921226513 -0.029991395713 -0.030614967269 
-0.031082500762 -0.031395314623 -0.031555746616 -0.03156632666 -0.031431729338 -0.031157734417 -0.030745454324 -0.030194426537 -0.029502126574 
-0.028663579868 -0.027671224594 -0.026515365355 -0.025185574536 -0.023673460746 -0.021977254528 -0.020108406601 -0.018099825794 -0.016014441747 
-0.013951370706 -0.012045190191 -0.010452220411 -0.0093175834074 -0.0087213081375 -0.0086177245005 -0.0088199883986 -0.0090793052614 -0.0068620832035 
-0.007041828743 -0.0073108162088 -0.0077236600225 -0.0083000733005 -0.0090461203175 -0.0099613539959 -0.011039933062 -0.012270352233 -0.01363531044 
-0.015112283831 -0.016674663682 -0.018293174209 -0.019937214026 -0.021576007796 -0.023179542117 -0.02471956823 -0.026170626358 -0.027510854409 
-0.028722859683 -0.029793813801 -0.030715437672 -0.031483439794 -0.032096768195 -0.03255671496 -0.032866090371 -0.033028316251 -0.033046553715 
-0.03292905432 -0.032681954154 -0.032306480849 -0.031802442604 -0.031167577765 -0.030396864539 -0.02948198855 -0.028411189532 -0.02716989771 
-0.02574281515 -0.024118124994 -0.022294349885 -0.020289892414 -0.018154244042 -0.015978167921 -0.013897920838 -0.012086215171 -0.010721361383 
-0.0099289876262 -0.0097053682067 -0.0098735757651 -0.010157379461 -0.0076781081113 -0.007850338878 -0.0081280272919 -0.0085621230033 -0.0091704248961 
-0.0099578763335 -0.010922727488 -0.012057116013 -0.013346819704 -0.01477159926 -0.016306248049 -0.017921943502 -0.019587688731 -0.021271473984 
-0.022941350464 -0.024566498424 -0.026118491117 -0.027572268049 -0.028907287659 -0.030107851189 -0.031163254246 -0.03206735553 -0.032817917417 
-0.033415702496 -0.033863595721 -0.034165656415 -0.034326217573 -0.034349122751 -0.034244619679 -0.034018476467 -0.033672364545 -0.033206847687 
-0.032620683987 -0.031909993893 -0.031067339338 -0.030080921792 -0.02893439142 -0.027607942767 -0.026081607898 -0.024341726059 -0.022391131589 
-0.020262516343 -0.018032549722 -0.015831638907 -0.013841023254 -0.012266371011 -0.011278186565 -0.010921869074 -0.011043998473 -0.011350384469 
-0.0085702594203 -0.008732191805 -0.0090144941014 -0.0094639806202 -0.010096531527 -0.010915946261 -0.011919059373 -0.013095967517 -0.01443004006 
-0.015898712539 -0.017474735492 -0.019127645704 -0.020824972568 -0.022533382385 -0.024219826501 -0.025852987895 -0.027404444163 -0.028850088172 
-0.030170749852 -0.031352561356 -0.032386745358 -0.033269120194 -0.033999216295 -0.034579379129 -0.035013754828 -0.035307298946 -0.035465009481 
-0.035491202692 -0.035396633582 -0.035186191539 -0.034862146638 -0.034426087106 -0.033878307104 -0.033216881845 -0.032436451749 -0.031526945451 
-0.030472565164 -0.02925171117 -0.027838969825 -0.026210521071 -0.024354130885 -0.022283902656 -0.020057918268 -0.017793739609 -0.015672717276 
-0.013920192885 -0.012747780591 -0.012253616242 -0.012319055821 -0.012639288091 -0.0095102060744 -0.0096591919842 -0.0099420250646 -0.010401347498 
-0.011051005868 -0.011893368285 -0.012923689679 -0.014130225847 -0.015494499324 -0.01699226224 -0.018594875214 -0.020270553539 -0.021985505188 
-0.023705176896 -0.025395785686 -0.027025702457 -0.02856708036 -0.029996846371 -0.031297300802 -0.032456234324 -0.033466669541 -0.034326086423 
-0.035035566867 -0.035598717515 -0.036020515356 -0.036306438519 -0.036461711929 -0.036490812807 -0.036403935124 -0.036204801488 -0.035896294295 
-0.035481126105 -0.034961331039 -0.034337299929 -0.033606491682 -0.032761832189 -0.031790020591 -0.030670352454 -0.029375143841 -0.02787344803 
-0.026139948815 -0.024170122032 -0.022000619281 -0.019730269191 -0.01753223194 -0.015642587859 -0.014307559786 -0.013677967378 -0.013678968063 
-0.014004934379 -0.010469620728 -0.010603118851 -0.010882557448 -0.011346617201 -0.012006751165 -0.01286351835 -0.013910584335 -0.01513477259 
-0.01651635861 -0.018030084215 -0.019646319764 -0.021332133824 -0.023052592414 -0.024772294912 -0.026456960402 -0.028075197197 -0.029599887946 
-0.031009036617 -0.032286288124 -0.033420989272 -0.034407657977 -0.035245268675 -0.035936178525 -0.036484808911 -0.036896584028 -0.037177006282 
-0.037331089099 -0.037363155781 -0.037282351082 -0.037091060775 -0.036792717608 -0.036391117025 -0.035889937554 -0.035291912204 -0.034597565388 
-0.033803486393 -0.032900259666 -0.031870358514 -0.030686982048 -0.02931568068 -0.027721285659 -0.025882328411 -0.02381306571 -0.021589299305 
-0.01936849311 -0.017388029939 -0.015920145996 -0.015164921863 -0.015097451088 -0.015421857851 -0.011421989585 -0.011537100303 -0.011809442975 
-0.012273538282 -0.012937973237 -0.013801199805 -0.014855445772 -0.01608657486 -0.017474245669 -0.01899263429 -0.020611306606 -0.022296436897 
-0.024012298901 -0.02572296031 -0.027394151556 -0.028994980519 -0.030499043372 -0.031885357388 -0.033138800535 -0.034249984044 -0.035214787568 
-0.036033450807 -0.036709172602 -0.037246841369 -0.037651859578 -0.037929310471 -0.038083635097 -0.038118817664 -0.038042908182 -0.037856853177 
-0.037564577717 -0.037170744726 -0.036680465012 -0.036098583607 -0.035428533505 -0.034670727584 -0.033820338867 -0.032864597669 -0.031780287181 
-0.030533158884 -0.029082210933 -0.02739218869 -0.0254559139 -0.023323809616 -0.021131539881 -0.019108638812 -0.017543469151 -0.016679061407 
-0.01654324943 -0.016860104335 -0.01234460344 -0.012435805656 -0.012698108738 -0.013157986629 -0.013821070277 -0.014683567359 -0.01573654569 
-0.016965406523 -0.018349622262 -0.01986300938 -0.021474605449 -0.023150025756 -0.02485312842 -0.026547939138 -0.028200566015 -0.029780579236 
-0.03126228608 -0.032625585655 -0.033856334341 -0.034946265432 -0.0358924376 -0.036695932985 -0.037360472786 -0.037891008431 -0.038292507676 
-0.038569321726 -0.038725197532 -0.038763510525 -0.038691579171 -0.038508901793 -0.038219691317 -0.037829300093 -0.037344002214 -0.036770385107 
-0.036114425214 -0.035380074996 -0.034567174517 -0.033668508375 -0.032666356403 -0.03152992908 -0.030216654249 -0.028681706716 -0.026899167918 
-0.024893797361 -0.022775221744 -0.02075700409 -0.019133316609 -0.018181595729 -0.017981819166 -0.018286821311 -0.013213801379 -0.013282578057 
-0.013526843832 -0.013978700864 -0.014635412219 -0.015490855329 -0.016535366607 -0.017754176398 -0.019126796251 -0.02062693788 -0.022223442053 
-0.023881760696 -0.025565839096 -0.027240100356 -0.028871043447 -0.030428739026 -0.031888079283 -0.033229642906 -0.034440094511 -0.035512143504 
-0.036443600966 -0.037236069042 -0.037893443378 -0.03842034475 -0.038821064358 -0.039099181225 -0.039257547414 -0.039298790548 -0.039230138661 
-0.039049447456 -0.038761130091 -0.038371072794 -0.03788644836 -0.037315222253 -0.036665413425 -0.035943985581 -0.035155051036 -0.034297018111 
-0.033358667628 -0.032315099269 -0.031126116561 -0.029742034073 -0.028122222261 -0.026267455037 -0.024259213814 -0.022288599825 -0.020645678555 
-0.019632307981 -0.019376870029 -0.019667583144 -0.014006925955 -0.014064459576 -0.014284224939 -0.01471775114 -0.01536405763 -0.016206909714 