# vtk DataFile Version 4.1
vtk output
ASCII
DATASET STRUCTURED_GRID
DIMENSIONS 51 51 1
POINTS 2601 float
0 0 0 0.02 0 0 0.04 0 0 
0.06 0 0 0.08 0 0 0.1 0 0 
0.12 0 0 0.14 0 0 0.16 0 0 
0.18 0 0 0.2 0 0 0.22 0 0 
0.24 0 0 0.26 0 0 0.28 0 0 
0.3 0 0 0.32 0 0 0.34 0 0 
0.36 0 0 0.38 0 0 0.4 0 0 
0.42 0 0 0.44 0 0 0.46 0 0 
0.48 0 0 0.5 0 0 0.52 0 0 
0.54 0 0 0.56 0 0 0.58 0 0 
0.6 0 0 0.62 0 0 0.64 0 0 
0.66 0 0 0.68 0 0 0.7 0 0 
0.72 0 0 0.74 0 0 0.76 0 0 
0.78 0 0 0.8 0 0 0.82 0 0 
0.84 0 0 0.86 0 0 0.88 0 0 
0.9 0 0 0.92 0 0 0.94 0 0 
0.96 0 0 0.98 0 0 1 0 0 
0 0.02 0 0.02 0.02 0 0.04 0.02 0 
0.06 0.02 0 0.08 0.02 0 0.1 0.02 0 
0.12 0.02 0 0.14 0.02 0 0.16 0.02 0 
0.18 0.02 0 0.2 0.02 0 0.22 0.02 0 
0.24 0.02 0 0.26 0.02 0 0.28 0.02 0 
0.3 0.02 0 0.32 0.02 0 0.34 0.02 0 
0.36 0.02 0 0.38 0.02 0 0.4 0.02 0 
0.42 0.02 0 0.44 0.02 0 0.46 0.02 0 
0.48 0.02 0 0.5 0.02 0 0.52 0.02 0 
0.54 0.02 0 0.56 0.02 0 0.58 0.02 0 
0.6 0.02 0 0.62 0.02 0 0.64 0.02 0 
0.66 0.02 0 0.68 0.02 0 0.7 0.02 0 
0.72 0.02 0 0.74 0.02 0 0.76 0.02 0 
0.78 0.02 0 0.8 0.02 0 0.82 0.02 0 
0.84 0.02 0 0.86 0.02 0 0.88 0.02 0 
0.9 0.02 0 0.92 0.02 0 0.94 0.02 0 
0.96 0.02 0 0.98 0.02 0 1 0.02 0 
0 0.04 0 0.02 0.04 0 0.04 0.04 0 
0.06 0.04 0 0.08 0.04 0 0.1 0.04 0 
0.12 0.04 0 0.14 0.04 0 0.16 0.04 0 
0.18 0.04 0 0.2 0.04 0 0.22 0.04 0 
0.24 0.04 0 0.26 0.04 0 0.28 0.04 0 
0.3 0.04 0 0.32 0.04 0 0.34 0.04 0 
0.36 0.04 0 0.38 0.04 0 0.4 0.04 0 
0.42 0.04 0 0.44 0.04 0 0.46 0.04 0 
0.48 0.04 0 0.5 0.04 0 0.52 0.04 0 
0.54 0.04 0 0.56 0.04 0 0.58 0.04 0 
0.6 0.04 0 0.62 0.04 0 0.64 0.04 0 
0.66 0.04 0 0.68 0.04 0 0.7 0.04 0 
0.72 0.04 0 0.74 0.04 0 0.76 0.04 0 
0.78 0.04 0 0.8 0.04 0 0.82 0.04 0 
0.84 0.04 0 0.86 0.04 0 0.88 0.04 0 
0.9 0.04 0 0.92 0.04 0 0.94 0.04 0 
0.96 0.04 0 0.98 0.04 0 1 0.04 0 
0 0.06 0 0.02 0.06 0 0.04 0.06 0 
0.06 0.06 0 0.08 0.06 0 0.1 0.06 0 
0.12 0.06 0 0.14 0.06 0 0.16 0.06 0 
0.18 0.06 0 0.2 0.06 0 0.22 0.06 0 
0.24 0.06 0 0.26 0.06 0 0.28 0.06 0 
0.3 0.06 0 0.32 0.06 0 0.34 0.06 0 
0.36 0.06 0 0.38 0.06 0 0.4 0.06 0 
0.42 0.06 0 0.44 0.06 0 0.46 0.06 0 
0.48 0.06 0 0.5 0.06 0 0.52 0.06 0 
0.54 0.06 0 0.56 0.06 0 0.58 0.06 0 
0.6 0.06 0 0.62 0.06 0 0.64 0.06 0 
0.66 0.06 0 0.68 0.06 0 0.7 0.06 0 
0.72 0.06 0 0.74 0.06 0 0.76 0.06 0 
0.78 0.06 0 0.8 0.06 0 0.82 0.06 0 
0.84 0.06 0 0.86 0.06 0 0.88 0.06 0 
0.9 0.06 0 0.92 0.06 0 0.94 0.06 0 
0.96 0.06 0 0.98 0.06 0 1 0.06 0 
0 0.08 0 0.02 0.08 0 0.04 0.08 0 
0.06 0.08 0 0.08 0.08 0 0.1 0.08 0 
0.12 0.08 0 0.14 0.08 0 0.16 0.08 0 
0.18 0.08 0 0.2 0.08 0 0.22 0.08 0 
0.24 0.08 0 0.26 0.08 0 0.28 0.08 0 
0.3 0.08 0 0.32 0.08 0 0.34 0.08 0 
0.36 0.08 0 0.38 0.08 0 0.4 0.08 0 
0.42 0.08 0 0.44 0.08 0 0.46 0.08 0 
0.48 0.08 0 0.5 0.08 0 0.52 0.08 0 
0.54 0.08 0 0.56 0.08 0 0.58 0.08 0 
0.6 0.08 0 0.62 0.08 0 0.64 0.08 0 
0.66 0.08 0 0.68 0.08 0 0.7 0.08 0 
0.72 0.08 0 0.74 0.08 0 0.76 0.08 0 
0.78 0.08 0 0.8 0.08 0 0.82 0.08 0 
0.84 0.08 0 0.86 0.08 0 0.88 0.08 0 
0.9 0.08 0 0.92 0.08 0 0.94 0.08 0 
0.96 0.08 0 0.98 0.08 0 1 0.08 0 
0 0.1 0 0.02 0.1 0 0.04 0.1 0 
0.06 0.1 0 0.08 0.1 0 0.1 0.1 0 
0.12 0.1 0 0.14 0.1 0 0.16 0.1 0 
0.18 0.1 0 0.2 0.1 0 0.22 0.1 0 
0.24 0.1 0 0.26 0.1 0 0.28 0.1 0 
0.3 0.1 0 0.32 0.1 0 0.34 0.1 0 
0.36 0.1 0 0.38 0.1 0 0.4 0.1 0 
0.42 0.1 0 0.44 0.1 0 0.46 0.1 0 
0.48 0.1 0 0.5 0.1 0 0.52 0.1 0 
0.54 0.1 0 0.56 0.1 0 0.58 0.1 0 
0.6 0.1 0 0.62 0.1 0 0.64 0.1 0 
0.66 0.1 0 0.68 0.1 0 0.7 0.1 0 
0.72 0.1 0 0.74 0.1 0 0.76 0.1 0 
0.78 0.1 0 0.8 0.1 0 0.82 0.1 0 
0.84 0.1 0 0.86 0.1 0 0.88 0.1 0 
0.9 0.1 0 0.92 0.1 0 0.94 0.1 0 
0.96 0.1 0 0.98 0.1 0 1 0.1 0 
0 0.12 0 0.02 0.12 0 0.04 0.12 0 
0.06 0.12 0 0.08 0.12 0 0.1 0.12 0 
0.12 0.12 0 0.14 0.12 0 0.16 0.12 0 
0.18 0.12 0 0.2 0.12 0 0.22 0.12 0 
0.24 0.12 0 0.26 0.12 0 0.28 0.12 0 
0.3 0.12 0 0.32 0.12 0 0.34 0.12 0 
0.36 0.12 0 0.38 0.12 0 0.4 0.12 0 
0.42 0.12 0 0.44 0.12 0 0.46 0.12 0 
0.48 0.12 0 0.5 0.12 0 0.52 0.12 0 
0.54 0.12 0 0.56 0.12 0 0.58 0.12 0 
0.6 0.12 0 0.62 0.12 0 0.64 0.12 0 
0.66 0.12 0 0.68 0.12 0 0.7 0.12 0 
0.72 0.12 0 0.74 0.12 0 0.76 0.12 0 
0.78 0.12 0 0.8 0.12 0 0.82 0.12 0 
0.84 0.12 0 0.86 0.12 0 0.88 0.12 0 
0.9 0.12 0 0.92 0.12 0 0.94 0.12 0 
0.96 0.12 0 0.98 0.12 0 1 0.12 0 
0 0.14 0 0.02 0.14 0 0.04 0.14 0 
0.06 0.14 0 0.08 0.14 0 0.1 0.14 0 
0.12 0.14 0 0.14 0.14 0 0.16 0.14 0 
0.18 0.14 0 0.2 0.14 0 0.22 0.14 0 
0.24 0.14 0 0.26 0.14 0 0.28 0.14 0 
0.3 0.14 0 0.32 0.14 0 0.34 0.14 0 
0.36 0.14 0 0.38 0.14 0 0.4 0.14 0 
0.42 0.14 0 0.44 0.14 0 0.46 0.14 0 
0.48 0.14 0 0.5 0.14 0 0.52 0.14 0 
0.54 0.14 0 0.56 0.14 0 0.58 0.14 0 
0.6 0.14 0 0.62 0.14 0 0.64 0.14 0 
0.66 0.14 0 0.68 0.14 0 0.7 0.14 0 
0.72 0.14 0 0.74 0.14 0 0.76 0.14 0 
0.78 0.14 0 0.8 0.14 0 0.82 0.14 0 
0.84 0.14 0 0.86 0.14 0 0.88 0.14 0 
0.9 0.14 0 0.92 0.14 0 0.94 0.14 0 
0.96 0.14 0 0.98 0.14 0 1 0.14 0 
0 0.16 0 0.02 0.16 0 0.04 0.16 0 
0.06 0.16 0 0.08 0.16 0 0.1 0.16 0 
0.12 0.16 0 0.14 0.16 0 0.16 0.16 0 
0.18 0.16 0 0.2 0.16 0 0.22 0.16 0 
0.24 0.16 0 0.26 0.16 0 0.28 0.16 0 
0.3 0.16 0 0.32 0.16 0 0.34 0.16 0 
0.36 0.16 0 0.38 0.16 0 0.4 0.16 0 
0.42 0.16 0 0.44 0.16 0 0.46 0.16 0 
0.48 0.16 0 0.5 0.16 0 0.52 0.16 0 
0.54 0.16 0 0.56 0.16 0 0.58 0.16 0 
0.6 0.16 0 0.62 0.16 0 0.64 0.16 0 
0.66 0.16 0 0.68 0.16 0 0.7 0.16 0 
0.72 0.16 0 0.74 0.16 0 0.76 0.16 0 
0.78 0.16 0 0.8 0.16 0 0.82 0.16 0 
0.84 0.16 0 0.86 0.16 0 0.88 0.16 0 
0.9 0.16 0 0.92 0.16 0 0.94 0.16 0 
0.96 0.16 0 0.98 0.16 0 1 0.16 0 
0 0.18 0 0.02 0.18 0 0.04 0.18 0 
0.06 0.18 0 0.08 0.18 0 0.1 0.18 0 
0.12 0.18 0 0.14 0.18 0 0.16 0.18 0 
0.18 0.18 0 0.2 0.18 0 0.22 0.18 0 
0.24 0.18 0 0.26 0.18 0 0.28 0.18 0 
0.3 0.18 0 0.32 0.18 0 0.34 0.18 0 
0.36 0.18 0 0.38 0.18 0 0.4 0.18 0 
0.42 0.18 0 0.44 0.18 0 0.46 0.18 0 
0.48 0.18 0 0.5 0.18 0 0.52 0.18 0 
0.54 0.18 0 0.56 0.18 0 0.58 0.18 0 
0.6 0.18 0 0.62 0.18 0 0.64 0.18 0 
0.66 0.18 0 0.68 0.18 0 0.7 0.18 0 
0.72 0.18 0 0.74 0.18 0 0.76 0.18 0 
0.78 0.18 0 0.8 0.18 0 0.82 0.18 0 
0.84 0.18 0 0.86 0.18 0 0.88 0.18 0 
0.9 0.18 0 0.92 0.18 0 0.94 0.18 0 
0.96 0.18 0 0.98 0.18 0 1 0.18 0 
0 0.2 0 0.02 0.2 0 0.04 0.2 0 
0.06 0.2 0 0.08 0.2 0 0.1 0.2 0 
0.12 0.2 0 0.14 0.2 0 0.16 0.2 0 
0.18 0.2 0 0.2 0.2 0 0.22 0.2 0 
0.24 0.2 0 0.26 0.2 0 0.28 0.2 0 
0.3 0.2 0 0.32 0.2 0 0.34 0.2 0 
0.36 0.2 0 0.38 0.2 0 0.4 0.2 0 
0.42 0.2 0 0.44 0.2 0 0.46 0.2 0 
0.48 0.2 0 0.5 0.2 0 0.52 0.2 0 
0.54 0.2 0 0.56 0.2 0 0.58 0.2 0 
0.6 0.2 0 0.62 0.2 0 0.64 0.2 0 
0.66 0.2 0 0.68 0.2 0 0.7 0.2 0 
0.72 0.2 0 0.74 0.2 0 0.76 0.2 0 
0.78 0.2 0 0.8 0.2 0 0.82 0.2 0 
0.84 0.2 0 0.86 0.2 0 0.88 0.2 0 
0.9 0.2 0 0.92 0.2 0 0.94 0.2 0 
0.96 0.2 0 0.98 0.2 0 1 0.2 0 
0 0.22 0 0.02 0.22 0 0.04 0.22 0 
0.06 0.22 0 0.08 0.22 0 0.1 0.22 0 
0.12 0.22 0 0.14 0.22 0 0.16 0.22 0 
0.18 0.22 0 0.2 0.22 0 0.22 0.22 0 
0.24 0.22 0 0.26 0.22 0 0.28 0.22 0 
0.3 0.22 0 0.32 0.22 0 0.34 0.22 0 
0.36 0.22 0 0.38 0.22 0 0.4 0.22 0 
0.42 0.22 0 0.44 0.22 0 0.46 0.22 0 
0.48 0.22 0 0.5 0.22 0 0.52 0.22 0 
0.54 0.22 0 0.56 0.22 0 0.58 0.22 0 
0.6 0.22 0 0.62 0.22 0 0.64 0.22 0 
0.66 0.22 0 0.68 0.22 0 0.7 0.22 0 
0.72 0.22 0 0.74 0.22 0 0.76 0.22 0 
0.78 0.22 0 0.8 0.22 0 0.82 0.22 0 
0.84 0.22 0 0.86 0.22 0 0.88 0.22 0 
0.9 0.22 0 0.92 0.22 0 0.94 0.22 0 
0.96 0.22 0 0.98 0.22 0 1 0.22 0 
0 0.24 0 0.02 0.24 0 0.04 0.24 0 
0.06 0.24 0 0.08 0.24 0 0.1 0.24 0 
0.12 0.24 0 0.14 0.24 0 0.16 0.24 0 
0.18 0.24 0 0.2 0.24 0 0.22 0.24 0 
0.24 0.24 0 0.26 0.24 0 0.28 0.24 0 
0.3 0.24 0 0.32 0.24 0 0.34 0.24 0 
0.36 0.24 0 0.38 0.24 0 0.4 0.24 0 
0.42 0.24 0 0.44 0.24 0 0.46 0.24 0 
0.48 0.24 0 0.5 0.24 0 0.52 0.24 0 
0.54 0.24 0 0.56 0.24 0 0.58 0.24 0 
0.6 0.24 0 0.62 0.24 0 0.64 0.24 0 
0.66 0.24 0 0.68 0.24 0 0.7 0.24 0 
0.72 0.24 0 0.74 0.24 0 0.76 0.24 0 
0.78 0.24 0 0.8 0.24 0 0.82 0.24 0 
0.84 0.24 0 0.86 0.24 0 0.88 0.24 0 
0.9 0.24 0 0.92 0.24 0 0.94 0.24 0 
0.96 0.24 0 0.98 0.24 0 1 0.24 0 
0 0.26 0 0.02 0.26 0 0.04 0.26 0 
0.06 0.26 0 0.08 0.26 0 0.1 0.26 0 
0.12 0.26 0 0.14 0.26 0 0.16 0.26 0 
0.18 0.26 0 0.2 0.26 0 0.22 0.26 0 
0.24 0.26 0 0.26 0.26 0 0.28 0.26 0 
0.3 0.26 0 0.32 0.26 0 0.34 0.26 0 
0.36 0.26 0 0.38 0.26 0 0.4 0.26 0 
0.42 0.26 0 0.44 0.26 0 0.46 0.26 0 
0.48 0.26 0 0.5 0.26 0 0.52 0.26 0 
0.54 0.26 0 0.56 0.26 0 0.58 0.26 0 
0.6 0.26 0 0.62 0.26 0 0.64 0.26 0 
0.66 0.26 0 0.68 0.26 0 0.7 0.26 0 
0.72 0.26 0 0.74 0.26 0 0.76 0.26 0 
0.78 0.26 0 0.8 0.26 0 0.82 0.26 0 
0.84 0.26 0 0.86 0.26 0 0.88 0.26 0 
0.9 0.26 0 0.92 0.26 0 0.94 0.26 0 
0.96 0.26 0 0.98 0.26 0 1 0.26 0 
0 0.28 0 0.02 0.28 0 0.04 0.28 0 
0.06 0.28 0 0.08 0.28 0 0.1 0.28 0 
0.12 0.28 0 0.14 0.28 0 0.16 0.28 0 
0.18 0.28 0 0.2 0.28 0 0.22 0.28 0 
0.24 0.28 0 0.26 0.28 0 0.28 0.28 0 
0.3 0.28 0 0.32 0.28 0 0.34 0.28 0 
0.36 0.28 0 0.38 0.28 0 0.4 0.28 0 
0.42 0.28 0 0.44 0.28 0 0.46 0.28 0 
0.48 0.28 0 0.5 0.28 0 0.52 0.28 0 
0.54 0.28 0 0.56 0.28 0 0.58 0.28 0 
0.6 0.28 0 0.62 0.28 0 0.64 0.28 0 
0.66 0.28 0 0.68 0.28 0 0.7 0.28 0 
0.72 0.28 0 0.74 0.28 0 0.76 0.28 0 
0.78 0.28 0 0.8 0.28 0 0.82 0.28 0 
0.84 0.28 0 0.86 0.28 0 0.88 0.28 0 
0.9 0.28 0 0.92 0.28 0 0.94 0.28 0 
0.96 0.28 0 0.98 0.28 0 1 0.28 0 
0 0.3 0 0.02 0.3 0 0.04 0.3 0 
0.06 0.3 0 0.08 0.3 0 0.1 0.3 0 
0.12 0.3 0 0.14 0.3 0 0.16 0.3 0 
0.18 0.3 0 0.2 0.3 0 0.22 0.3 0 
0.24 0.3 0 0.26 0.3 0 0.28 0.3 0 
0.3 0.3 0 0.32 0.3 0 0.34 0.3 0 
0.36 0.3 0 0.38 0.3 0 0.4 0.3 0 
0.42 0.3 0 0.44 0.3 0 0.46 0.3 0 
0.48 0.3 0 0.5 0.3 0 0.52 0.3 0 
0.54 0.3 0 0.56 0.3 0 0.58 0.3 0 
0.6 0.3 0 0.62 0.3 0 0.64 0.3 0 
0.66 0.3 0 0.68 0.3 0 0.7 0.3 0 
0.72 0.3 0 0.74 0.3 0 0.76 0.3 0 
0.78 0.3 0 0.8 0.3 0 0.82 0.3 0 
0.84 0.3 0 0.86 0.3 0 0.88 0.3 0 
0.9 0.3 0 0.92 0.3 0 0.94 0.3 0 
0.96 0.3 0 0.98 0.3 0 1 0.3 0 
0 0.32 0 0.02 0.32 0 0.04 0.32 0 
0.06 0.32 0 0.08 0.32 0 0.1 0.32 0 
0.12 0.32 0 0.14 0.32 0 0.16 0.32 0 
0.18 0.32 0 0.2 0.32 0 0.22 0.32 0 
0.24 0.32 0 0.26 0.32 0 0.28 0.32 0 
0.3 0.32 0 0.32 0.32 0 0.34 0.32 0 
0.36 0.32 0 0.38 0.32 0 0.4 0.32 0 
0.42 0.32 0 0.44 0.32 0 0.46 0.32 0 
0.48 0.32 0 0.5 0.32 0 0.52 0.32 0 
0.54 0.32 0 0.56 0.32 0 0.58 0.32 0 
[...]
CELL_DATA 2500
FIELD FieldData 2
pressure 1 2500 double
-0.0068766015721 -0.006884938327 -0.0068938568394 -0.006899259838 -0.0068996516389 -0.0068948067872 -0.0068849410812 -0.0068703122103 -0.0068510732293 
-0.0068271959901 -0.0067984917584 -0.00676463587 -0.006725180398 -0.006679544005 -0.006627027548 -0.0065668398953 -0.006498112405 -0.0064198809513 
-0.0063311609371 -0.0062309137643 -0.006118180302 -0.0059920760742 -0.0058518759437 -0.0056971157851 -0.0055276898813 -0.0053439807071 -0.0051469828963 
-0.0049384197266 -0.0047208520164 -0.0044988115922 -0.0042772155601 -0.0040610538372 -0.003855976164 -0.0036678601058 -0.0035023576115 -0.0033643714333 
-0.0032575416148 -0.0031837869544 -0.0031429949603 -0.0031329422444 -0.0031494604992 -0.0031868776852 -0.0032386327058 -0.0032979058932 -0.0033582979 
-0.003414194282 -0.0034609637535 -0.0034949419903 -0.0035135613864 -0.0035163762829 -0.0068684735438 -0.0068770279899 -0.006883690183 -0.0068867223873 
-0.0068853216431 -0.0068792877642 -0.0068686734639 -0.0068535837529 -0.0068340298023 -0.0068099110122 -0.0067810122552 -0.0067470033253 -0.0067074193004 
-0.0066616943071 -0.00660915783 -0.0065490651674 -0.0064805504809 -0.0064027173186 -0.0063145762308 -0.0062151989806 -0.0061036279441 -0.0059790109219 
-0.0058406507135 -0.005688082178 -0.0055212083912 -0.0053403946906 -0.0051465815403 -0.0049413992754 -0.0047272414652 -0.0045093916229 -0.0042918241075 
-0.00407959623 -0.0038782767408 -0.0036936278225 -0.0035311731485 -0.0033956942694 -0.0032907187675 -0.0032180636891 -0.0031775409518 -0.0031668545017 
-0.0031818120187 -0.0032167538634 -0.0032651779429 -0.0033204297659 -0.0033763231517 -0.003427442438 -0.0034697683417 -0.0035002574814 -0.0035170075815 
-0.0035192430758 -0.0068599682079 -0.0068713166281 -0.0068778943928 -0.006879788634 -0.0068771235234 -0.0068700625166 -0.0068587568854 -0.0068432682636 
-0.006823550353 -0.0067994682368 -0.0067707776253 -0.0067371160183 -0.0066980254689 -0.0066529480745 -0.0066012555558 -0.0065421807619 -0.0064749073954 
-0.0063985202868 -0.0063121112563 -0.0062146949081 -0.006105317098 -0.0059830843851 -0.0058472324311 -0.0056972430475 -0.0055329082357 -0.0053544613522 
-0.0051627062704 -0.0049591189364 -0.0047467290236 -0.0045300165272 -0.0043128789402 -0.0041005208489 -0.0038986563848 -0.0037132208505 -0.0035499348946 
-0.00341379392 -0.0033085161947 -0.0032360651307 -0.0031962790336 -0.0031867822099 -0.0032031629238 -0.0032394469453 -0.0032888104141 -0.0033443371796 
-0.0033997219878 -0.0034497034365 -0.0034903983461 -0.0035193938235 -0.0035351574035 -0.0035370487833 -0.0068568591507 -0.0068713556761 -0.0068787125169 
-0.0068802444528 -0.006876857498 -0.0068691353607 -0.0068573978866 -0.0068417525244 -0.0068221720915 -0.0067985016206 -0.0067704731531 -0.0067377235733 
-0.0066997983641 -0.0066561751398 -0.0066061926545 -0.0065491215844 -0.0064841384626 -0.0064103758285 -0.0063268625193 -0.0062325845098 -0.0061265255355 
-0.006007687052 -0.0058752077122 -0.0057283829592 -0.0055668157353 -0.0053905346679 -0.0052001279274 -0.0049969025997 -0.0047846343707 -0.0045663917831 
-0.0043466740174 -0.0041308431044 -0.0039248959454 -0.003735133421 -0.0035677079526 -0.0034280711908 -0.0033203824976 -0.0032469313652 -0.0032077202391 
-0.0032003022462 -0.0032199342481 -0.0032601210836 -0.0033134006763 -0.0033722984862 -0.0034301331518 -0.0034815703788 -0.003522731753 -0.0035517377758 
-0.003567340795 -0.003569252303 -0.0068632359447 -0.0068804710995 -0.0068888135004 -0.0068904220522 -0.0068867884767 -0.0068788342432 -0.0068670484139 
-0.0068516368715 -0.0068326006404 -0.0068097892048 -0.0067829454823 -0.0067517155825 -0.0067156797606 -0.0066742816247 -0.0066268936189 -0.006572796176 
-0.0065111909519 -0.006441162974 -0.006361691743 -0.006271716702 -0.0061700901007 -0.0060557093113 -0.0059274795933 -0.0057844785286 -0.0056260491935 
-0.0054519249477 -0.0052624476779 -0.0050587374714 -0.0048445277841 -0.0046226816402 -0.0043979008208 -0.0041758156296 -0.0039628090683 -0.003765688946 
-0.003591212586 -0.0034454979034 -0.0033333441763 -0.0032575623414 -0.0032184488229 -0.0032135184841 -0.0032376356576 -0.0032835684253 -0.0033429798606 
-0.0034075381486 -0.003469958322 -0.0035246378162 -0.0035675333475 -0.0035974957914 -0.0036133447452 -0.0036149990156 -0.0068820897164 -0.0069014798434 
-0.0069107535661 -0.0069126870708 -0.0069091891473 -0.0069014257068 -0.0068900379968 -0.0068753100044 -0.006857278681 -0.0068358299947 -0.0068107276918 
-0.006781661118 -0.0067481826139 -0.006709774366 -0.0066658310608 -0.006615654424 -0.0065584121794 -0.0064931515696 -0.0064188199284 -0.0063342313248 
-0.006238147425 -0.0061292167696 -0.0060061313095 -0.0058676996527 -0.0057129147404 -0.0055412099357 -0.0053525324274 -0.0051476670573 -0.0049300760257 
-0.0047029737022 -0.004471167305 -0.0042405647121 -0.0040179885216 -0.0038108454332 -0.0036266418969 -0.0034723459856 -0.0033536126995 -0.0032739866068 
-0.0032342226151 -0.0032318747811 -0.0032613333121 -0.0033144701909 -0.0033817567875 -0.0034537139586 -0.0035222311828 -0.0035810623269 -0.0036263999418 
-0.0036576926816 -0.0036737479094 -0.0036745013409 -0.0069156447741 -0.0069366422114 -0.0069467247091 -0.006949136067 -0.0069460823169 -0.0069389081346 
-0.0069283573774 -0.0069147669896 -0.0068982282663 -0.0068786612218 -0.006855880289 -0.006829560604 -0.006799299064 -0.0067646143307 -0.0067249260836 
-0.0066795183719 -0.0066275534964 -0.0065680480619 -0.0064998780388 -0.0064217669824 -0.0063322611253 -0.0062298245914 -0.0061129100212 -0.0059799716756 
-0.0058297248261 -0.0056611065588 -0.0054736518021 -0.005267623343 -0.0050460116622 -0.0048127079926 -0.0045725967154 -0.0043318204631 -0.0040976290489 
-0.0038780744767 -0.003681524835 -0.0035159715123 -0.0033881624286 -0.0033026518421 -0.0032609127831 -0.0032606915848 -0.003295925175 -0.0033573602389 
-0.0034339312707 -0.0035146318557 -0.0035903562658 -0.0036532201905 -0.003701449167 -0.0037339430767 -0.0037498522106 -0.0037490334036 -0.0069655354101 
-0.0069876817674 -0.0069984571261 -0.0070014605318 -0.00699911686 -0.0069928886087 -0.0069835768253 -0.0069715718576 -0.0069570066454 -0.0069398470072 
-0.0069199112444 -0.0068969166327 -0.0068705171332 -0.0068402564181 -0.0068055642034 -0.0067657421899 -0.006719942744 -0.0066671677503 -0.0066062106752 
-0.0065356479407 -0.0064538803342 -0.006359185836 -0.0062497200871 -0.0061236976521 -0.0059793638688 -0.0058153257989 -0.0056305424373 -0.0054246018012 
-0.0051994196861 -0.0049600453496 -0.0047113268121 -0.0044595594336 -0.0042123432155 -0.0039783185707 -0.0037667269713 -0.0035867160454 -0.0034463941168 
-0.0033517112313 -0.0033052861606 -0.0033054548962 -0.0033458855529 -0.0034160800662 -0.0035029748308 -0.0035933829417 -0.0036765650268 -0.0037443029108 
-0.003795005907 -0.0038280974209 -0.0038433938259 -0.0038405513698 -0.0070329006695 -0.0070558278311 -0.007067209445 -0.0070709138924 -0.0070695168851 
-0.0070645482131 -0.0070568539238 -0.007046864404 -0.0070347416662 -0.0070204678295 -0.0070038940614 -0.0069848105182 -0.0069628967646 -0.0069377333628 
-0.0069087823231 -0.0068753746835 -0.0068366834237 -0.006791667947 -0.0067390359505 -0.0066772845014 -0.0066046828109 -0.0065193172169 -0.0064191346525 
-0.0063020250564 -0.0061659570573 -0.0060091009925 -0.0058300186469 -0.0056276190497 -0.0054008732784 -0.0051571508514 -0.0049011042681 -0.0046389582011 
-0.0043783961325 -0.004128425937 -0.0038990389668 -0.0037005672942 -0.0035427145727 -0.003433286578 -0.0033767199558 -0.003372706842 -0.0034152988237 
-0.0034930238634 -0.0035904732313 -0.0036914060299 -0.0037823038666 -0.0038558707293 -0.003908656099 -0.0039417670685 -0.0039561445885 -0.0039512596332 
-0.007118450519 -0.0071418656791 -0.0071538044231 -0.0071583217602 -0.0071580847847 -0.007154670202 -0.0071489589114 -0.0071413914098 -0.0071321464416 
-0.0071212276076 -0.0071085585295 -0.0070939638102 -0.0070771680496 -0.0070578061873 -0.0070353981767 -0.0070093310496 -0.0069787789527 -0.0069426760091 
-0.0068997299633 -0.0068483594294 -0.0067867689204 -0.0067128941306 -0.0066245309349 -0.0065193236984 -0.0063950653014 -0.0062496465408 -0.006081224598 
-0.00588842619 -0.0056656156359 -0.0054218432441 -0.005162224913 -0.0048926229971 -0.0046203423045 -0.0043542672043 -0.004104738343 -0.0038830737185 
-0.0037006636532 -0.0035676190071 -0.0034910443208 -0.0034731873288 -0.0035098459072 -0.0035897051875 -0.0036954425178 -0.0038071590067 -0.0039075822416 
-0.0039857866481 -0.0040422958627 -0.0040757578641 -0.004089517459 -0.0040832321472 -0.0072225184601 -0.0072461936216 -0.0072586706422 -0.0072641117471 
-0.0072652436174 -0.0072636784717 -0.007260293414 -0.007255537818 -0.0072495982848 -0.0072425378043 -0.0072343251908 -0.007224822785 -0.0072138314091 
-0.0072010595371 -0.0071861216378 -0.007168432743 -0.0071472176567 -0.0071214646245 -0.0070898827328 -0.0070509367617 -0.0070027841608 -0.006943352998 
-0.006870316105 -0.0067813905203 -0.0066741502013 -0.0065463087726 -0.0063957980682 -0.0062208352938 -0.0060160082805 -0.0057791881689 -0.0055233483731 
-0.0052528257064 -0.0049737005222 -0.0046938754856 -0.004423264395 -0.0041736085912 -0.0039577757413 -0.0037884578977 -0.003676305194 -0.003627635771 
-0.0036420634701 -0.0037107345331 -0.0038162477867 -0.0039354905992 -0.0040458207677 -0.0041320761685 -0.0041937374364 -0.0042296680604 -0.0042442549383 
-0.0042381241401 -0.0073451116078 -0.007368869043 -0.0073818779864 -0.0073883615365 -0.0073910855901 -0.0073916522397 -0.0073909356124 -0.0073893777632 
-0.0073872074447 -0.0073845348046 -0.0073813568892 -0.0073776195047 -0.0073732123463 -0.0073679590369 -0.0073615335918 -0.007353457872 -0.0073430589052 
-0.0073294138973 -0.0073113657055 -0.0072874572535 -0.0072559754104 -0.0072149110681 -0.007162216503 -0.0070955866437 -0.0070127139483 -0.0069113170043 
-0.006789233902 -0.0066445220299 -0.006475847941 -0.0062615512079 -0.0060222850015 -0.0057624462144 -0.0054860765695 -0.0051987746477 -0.0049087939479 
-0.004627349173 -0.0043682345148 -0.0041467106987 -0.0039776561203 -0.0038729843823 -0.0038385781528 -0.0038713125346 -0.0039572777339 -0.0040728660712 
-0.0041905071859 -0.0042883367953 -0.004357214593 -0.0044017855189 -0.0044203861056 -0.0044171576236 -0.0074859519944 -0.0075096356177 -0.0075231850766 
-0.0075308522173 -0.0075353881375 -0.0075383763872 -0.0075406686939 -0.0075427294625 -0.0075448268409 -0.0075470921524 -0.0075495988357 -0.0075523930757 
-0.0075554834692 -0.0075587917269 -0.0075621186057 -0.0075651500185 -0.0075673582126 -0.0075680422721 -0.007566224983 -0.0075607308256 -0.0075500885441 
-0.0075327855301 -0.0075070373879 -0.0074709958035 -0.0074226898965 -0.0073600397242 -0.007280778076 -0.0071822749022 -0.0070615350243 -0.0069110705485 
-0.0067050760387 -0.0064730339965 -0.0062145778205 -0.005930894589 -0.0056269464602 -0.0053121526575 -0.0050003548113 -0.0047090167349 -0.0044575495026 
-0.0042646623023 -0.004144840356 -0.0041043184891 -0.0041374269632 -0.0042250561368 -0.004337870893 -0.0044460222054 -0.0045309638051 -0.0045879717467 
-0.0046176460414 -0.004621720563 -0.0076444934357 -0.0076679679262 -0.007682090742 -0.0076910843802 -0.0076976579576 -0.0077033554255 -0.0077090264162 
-0.0077151603993 -0.0077220394825 -0.0077298554278 -0.0077387822737 -0.0077489860146 -0.0077605980739 -0.0077736755086 -0.0077882297833 -0.0078041316787 
-0.007821146433 -0.0078388260915 -0.0078566177536 -0.007873750792 -0.0078894441513 -0.0079027818303 -0.0079127912095 -0.0079184057336 -0.0079184016221 
-0.0079111138791 -0.0078940046174 -0.0078635092012 -0.007815002052 -0.0077432080374 -0.0076185385318 -0.007437552543 -0.0072181368831 -0.0069542782202 
-0.0066459423122 -0.0062994394759 -0.0059276607258 -0.0055496272278 -0.0051891116422 -0.0048721884385 -0.004623638235 -0.004462268095 -0.0043956155875 
-0.0044154955985 -0.0044970715494 -0.0046051563181 -0.0047082828526 -0.0047879820408 -0.0048379779651 -0.0048550523467 -0.0078199545137 -0.0078431093863 
-0.0078578452456 -0.0078683077704 -0.0078771400132 -0.0078858531104 -0.007895300132 -0.0079059727212 -0.0079181908182 -0.007932238558 -0.0079484057295 
-0.0079669900411 -0.007988266505 -0.0080125170102 -0.0080399798782 -0.0080708452527 -0.0081051995714 -0.0081431096125 -0.0081845756236 -0.0082296387051 
-0.0082784473428 -0.0083311799545 -0.0083881833403 -0.008449715629 -0.0085156442483 -0.0085847189738 -0.0086540329615 -0.0087184291115 -0.0087701153704 
-0.0087991246177 -0.0087940780507 -0.008699720669 -0.008546379403 -0.0083229528865 -0.0080236857625 -0.0076508567028 -0.0072155310176 -0.0067374570467 
-0.0062440927411 -0.0057686390185 -0.0053468256276 -0.0050121436198 -0.0047895271606 -0.0046882692748 -0.0046962914236 -0.0047801450681 -0.0048962361078 
-0.0050079690933 -0.0050878809485 -0.0051239707899 -0.0080113471399 -0.008034086995 -0.008049470006 -0.00806153533 -0.008072854244 -0.0080849074726 
-0.0080985307208 -0.0081142251611 -0.0081323864019 -0.0081534016241 -0.0081776918891 -0.0082056999128 -0.0082379190543 -0.0082748900916 -0.0083171650606 
-0.0083653145433 -0.0084199665757 -0.008481850516 -0.0085518303576 -0.0086311184829 -0.008721181092 -0.0088239850182 -0.0089416945496 -0.0090764572139 
-0.0092294070429 -0.0093998066975 -0.0095838794012 -0.0097737245275 -0.0099571583748 -0.010118137114 -0.010238075085 -0.01028889091 -0.010228651893 
-0.010068405804 -0.0097944933909 -0.009404500201 -0.0089070528836 -0.0083217602767 -0.0076786633964 -0.0070169800306 -0.0063827300741 -0.0058246003776 
-0.0053875086163 -0.0051037028539 -0.0049824320137 -0.0050020341664 -0.0051125811555 -0.0052552407777 -0.0053762689417 -0.0054386047335 -0.0082174955193 
-0.0082397234766 -0.0082557777166 -0.0082695778619 -0.0082836167498 -0.008299326767 -0.0083175191431 -0.0083387404901 -0.0083634716654 -0.0083922178974 
-0.0084255399357 -0.0084640812943 -0.0085086055072 -0.0085599520665 -0.0086190801637 -0.0086870883265 -0.0087653084159 -0.008855349405 -0.0089593336585 
-0.009079952568 -0.0092206975446 -0.0093857675638 -0.0095798681504 -0.0098072830086 -0.010070671008 -0.010369492045 -0.010698128408 -0.01104494319 
-0.011391911374 -0.011716124114 -0.011991739778 -0.012194169244 -0.012262081845 -0.012189688651 -0.011959058037 -0.011564234003 -0.011011546342 
-0.010319816572 -0.0095202984369 -0.0086563183698 -0.0077821659688 -0.0069603715613 -0.0062562294549 -0.0057283160604 -0.0054145641727 -0.0053162054086 
-0.0053878443787 -0.0055495516998 -0.0057138231186 -0.0058133351801 -0.008437045481 -0.0084586602649 -0.008475404992 -0.0084910652674 -0.0085080399213 
-0.00852769585 -0.0085508449944 -0.0085780942116 -0.0086100133977 -0.0086472386032 -0.0086905030594 -0.0087407139635 -0.0087989131972 -0.0088663375779 
-0.0089444403083 -0.0090350011166 -0.0091402185519 -0.0092628986687 -0.0094067085037 -0.0095763774478 -0.0097778678943 -0.010018262378 -0.010305158086 
-0.01064525161 -0.011042653203 -0.01149617367 -0.011997603431 -0.01253004386 -0.013068728306 -0.013582061697 -0.014035207632 -0.014393907049 
-0.014615823634 -0.014651309162 -0.014480154875 -0.014094122982 -0.013497807565 -0.012708858262 -0.011758271694 -0.01069095659 -0.0095662179766 
-0.0084571729984 -0.0074473803491 -0.0066223191061 -0.0060535543922 -0.0057755819254 -0.0057618367216 -0.0059205267757 -0.0061302076807 -0.0062713287845 
-0.0086684813817 -0.0086893847897 -0.0087068303559 -0.0087244542622 -0.0087445418756 -0.0087684040132 -0.0087968729021 -0.0088306062085 -0.0088702857238 
-0.0089166838232 -0.0089707754303 -0.0090337185508 -0.0091069196967 -0.0091920602556 -0.0092912153803 -0.0094069702233 -0.009542590059 -0.0097023567395 
-0.0098918485068 -0.010118222025 -0.010390393902 -0.010718760264 -0.011113996327 -0.011585377642 -0.012137689866 -0.012768722226 -0.013466192543 
-0.014207312075 -0.014958797952 -0.015679924792 -0.016326377614 -0.016854969481 -0.017227913717 -0.017383684157 -0.017283486706 -0.016918800022 
-0.016293494265 -0.015423990614 -0.014339679265 -0.013084265373 -0.011717950219 -0.010319512611 -0.0089861467809 -0.0078276450611 -0.0069508509028 
-0.0064315160092 -0.006276718076 -0.0063981590807 -0.0066407106443 -0.0068317185644 -0.0089101521662 -0.0089302499422 -0.0089483903901 -0.0089680453336 
-0.0089913786701 -0.0090196658834 -0.0090537469791 -0.0090943546783 -0.0091422676437 -0.0091984613918 -0.0092641308226 -0.0093407497579 -0.009430111963 
-0.0095344416234 -0.0096565182175 -0.0097998513855 -0.0099689882821 -0.010169911741 -0.01041035438 -0.01070027321 -0.011051880014 -0.011479008785 
-0.011995605141 -0.012612909657 -0.013336273095 -0.014161097109 -0.015070540942 -0.016034434222 -0.017010635501 -0.017948664726 -0.018794641314 
-0.019497140953 -0.020013690721 -0.020289569998 -0.020264383243 -0.019930152193 -0.019291068451 -0.018362712879 -0.017171990955 -0.015758808994 
-0.014179789704 -0.012513288679 -0.010863374452 -0.0093584482312 -0.0081384755376 -0.0073247940657 -0.0069711236201 -0.0070120102423 -0.0072668184146 
-0.0075129333318 -0.0091602964434 -0.0091794973896 -0.009198308079 -0.0092200116852 -0.0092466736302 -0.0092795245251 -0.0093194287405 -0.0093671716622 
-0.0094236843876 -0.0094901266515 -0.0095679486679 -0.0096589578886 -0.0097653938678 -0.0098900762796 -0.010036553943 -0.010209380063 -0.010414525891 
-0.010659781339 -0.010955292892 -0.011313976188 -0.011751432597 -0.012284977481 -0.012931426354 -0.013703885643 -0.014607202316 -0.015633919916 
-0.01676169125 -0.017952431088 -0.019154808757 -0.020308309496 -0.021349321155 -0.022217925742 -0.022864188472 -0.023252347903 -0.023298830492 
-0.022999101358 -0.02235943286 -0.021395601006 -0.020131941414 -0.018602738941 -0.016856951769 -0.014966048564 -0.013032762661 -0.011195693649 
-0.0096219461819 -0.0084783789886 -0.0078747776771 -0.0077883611218 -0.0080298487066 -0.0083312803148 -0.0094170693902 -0.0094352952273 -0.0094547117112 
-0.0094784389566 -0.0095084345228 -0.0095458965404 -0.0095916934575 -0.0096467033021 -0.0097119974206 -0.0097889288765 -0.0098792276157 -0.009985043594 
-0.010109107985 -0.010254848688 -0.010426640496 -0.010630151217 -0.01087280948 -0.011164308622 -0.011517256335 -0.01194752515 -0.012473998615 
-0.013117122928 -0.013896434021 -0.014826119402 -0.015910056894 -0.017137395364 -0.018479753496 -0.019891170861 -0.021310797817 -0.022668286864 
-0.023890864216 -0.024910688496 -0.025671537177 -0.026151411006 -0.026258173883 -0.025990981961 -0.025359583844 -0.024381577136 -0.023079703907 
-0.021482070296 -0.019627019367 -0.017573246775 -0.015413472976 -0.013286224652 -0.011376395896 -0.0098917335744 -0.009002778976 -0.0087468621522 
-0.0089493105082 -0.0093031577978 -0.0096785858687 -0.0096957473061 -0.0097156867862 -0.0097413488348 -0.0097745964939 -0.0098165837736 -0.0098682027746 
-0.009930426363 -0.010004458233 -0.010091869611 -0.010194642096 -0.010315313873 -0.010457083707 -0.01062400931 -0.010821301928 -0.011055740244 
-0.011336186413 -0.011674210215 -0.012084763522 -0.012586450818 -0.013201035936 -0.013951911834 -0.014860646899 -0.015942045901 -0.017198593157 
-0.018615820408 -0.020159405193 -0.021775463168 -0.023394081932 -0.024935749145 -0.026319235725 -0.027469926958 -0.028326409324 -0.028871671989 
-0.029022988175 -0.028781454882 -0.028161664879 -0.027185293076 -0.025875775519 -0.02425630628 -0.022353579272 -0.020209155951 -0.017897666584 
-0.015546498909 -0.01334644353 -0.011537194598 -0.010349206928 -0.0098922916336 -0.010030341454 -0.010424018694 -0.0099429300368 -0.0099589568658 
-0.0099793030651 -0.010006747314 -0.01004305582 -0.010089339323 -0.010146539095 -0.010215702854 -0.010298185709 -0.010395739017 -0.010510631311 
-0.010645752741 -0.010804759089 -0.010992329333 -0.011214463281 -0.011478990572 -0.011796090946 -0.012179052329 -0.012644852403 -0.013214445195 
-0.013912132647 -0.014763575841 -0.015791818534 -0.017011868128 -0.018424749636 -0.020012488076 -0.021735135499 -0.023531584349 -0.025323789566 