# vtk DataFile Version 4.1
vtk output
ASCII
DATASET STRUCTURED_GRID
DIMENSIONS 51 51 1
POINTS 2601 float
0 0 0 0.02 0 0 0.04 0 0 
0.06 0 0 0.08 0 0 0.1 0 0 
0.12 0 0 0.14 0 0 0.16 0 0 
0.18 0 0 0.2 0 0 0.22 0 0 
0.24 0 0 0.26 0 0 0.28 0 0 
0.3 0 0 0.32 0 0 0.34 0 0 
0.36 0 0 0.38 0 0 0.4 0 0 
0.42 0 0 0.44 0 0 0.46 0 0 
0.48 0 0 0.5 0 0 0.52 0 0 
0.54 0 0 0.56 0 0 0.58 0 0 
0.6 0 0 0.62 0 0 0.64 0 0 
0.66 0 0 0.68 0 0 0.7 0 0 
0.72 0 0 0.74 0 0 0.76 0 0 
0.78 0 0 0.8 0 0 0.82 0 0 
0.84 0 0 0.86 0 0 0.88 0 0 
0.9 0 0 0.92 0 0 0.94 0 0 
0.96 0 0 0.98 0 0 1 0 0 
0 0.02 0 0.02 0.02 0 0.04 0.02 0 
0.06 0.02 0 0.08 0.02 0 0.1 0.02 0 
0.12 0.02 0 0.14 0.02 0 0.16 0.02 0 
0.18 0.02 0 0.2 0.02 0 0.22 0.02 0 
0.24 0.02 0 0.26 0.02 0 0.28 0.02 0 
0.3 0.02 0 0.32 0.02 0 0.34 0.02 0 
0.36 0.02 0 0.38 0.02 0 0.4 0.02 0 
0.42 0.02 0 0.44 0.02 0 0.46 0.02 0 
0.48 0.02 0 0.5 0.02 0 0.52 0.02 0 
0.54 0.02 0 0.56 0.02 0 0.58 0.02 0 
0.6 0.02 0 0.62 0.02 0 0.64 0.02 0 
0.66 0.02 0 0.68 0.02 0 0.7 0.02 0 
0.72 0.02 0 0.74 0.02 0 0.76 0.02 0 
0.78 0.02 0 0.8 0.02 0 0.82 0.02 0 
0.84 0.02 0 0.86 0.02 0 0.88 0.02 0 
0.9 0.02 0 0.92 0.02 0 0.94 0.02 0 
0.96 0.02 0 0.98 0.02 0 1 0.02 0 
0 0.04 0 0.02 0.04 0 0.04 0.04 0 
0.06 0.04 0 0.08 0.04 0 0.1 0.04 0 
0.12 0.04 0 0.14 0.04 0 0.16 0.04 0 
0.18 0.04 0 0.2 0.04 0 0.22 0.04 0 
0.24 0.04 0 0.26 0.04 0 0.28 0.04 0 
0.3 0.04 0 0.32 0.04 0 0.34 0.04 0 
0.36 0.04 0 0.38 0.04 0 0.4 0.04 0 
0.42 0.04 0 0.44 0.04 0 0.46 0.04 0 
0.48 0.04 0 0.5 0.04 0 0.52 0.04 0 
0.54 0.04 0 0.56 0.04 0 0.58 0.04 0 
0.6 0.04 0 0.62 0.04 0 0.64 0.04 0 
0.66 0.04 0 0.68 0.04 0 0.7 0.04 0 
0.72 0.04 0 0.74 0.04 0 0.76 0.04 0 
0.78 0.04 0 0.8 0.04 0 0.82 0.04 0 
0.84 0.04 0 0.86 0.04 0 0.88 0.04 0 
0.9 0.04 0 0.92 0.04 0 0.94 0.04 0 
0.96 0.04 0 0.98 0.04 0 1 0.04 0 
0 0.06 0 0.02 0.06 0 0.04 0.06 0 
0.06 0.06 0 0.08 0.06 0 0.1 0.06 0 
0.12 0.06 0 0.14 0.06 0 0.16 0.06 0 
0.18 0.06 0 0.2 0.06 0 0.22 0.06 0 
0.24 0.06 0 0.26 0.06 0 0.28 0.06 0 
0.3 0.06 0 0.32 0.06 0 0.34 0.06 0 
0.36 0.06 0 0.38 0.06 0 0.4 0.06 0 
0.42 0.06 0 0.44 0.06 0 0.46 0.06 0 
0.48 0.06 0 0.5 0.06 0 0.52 0.06 0 
0.54 0.06 0 0.56 0.06 0 0.58 0.06 0 
0.6 0.06 0 0.62 0.06 0 0.64 0.06 0 
0.66 0.06 0 0.68 0.06 0 0.7 0.06 0 
0.72 0.06 0 0.74 0.06 0 0.76 0.06 0 
0.78 0.06 0 0.8 0.06 0 0.82 0.06 0 
0.84 0.06 0 0.86 0.06 0 0.88 0.06 0 
0.9 0.06 0 0.92 0.06 0 0.94 0.06 0 
0.96 0.06 0 0.98 0.06 0 1 0.06 0 
0 0.08 0 0.02 0.08 0 0.04 0.08 0 
0.06 0.08 0 0.08 0.08 0 0.1 0.08 0 
0.12 0.08 0 0.14 0.08 0 0.16 0.08 0 
0.18 0.08 0 0.2 0.08 0 0.22 0.08 0 
0.24 0.08 0 0.26 0.08 0 0.28 0.08 0 
0.3 0.08 0 0.32 0.08 0 0.34 0.08 0 
0.36 0.08 0 0.38 0.08 0 0.4 0.08 0 
0.42 0.08 0 0.44 0.08 0 0.46 0.08 0 
0.48 0.08 0 0.5 0.08 0 0.52 0.08 0 
0.54 0.08 0 0.56 0.08 0 0.58 0.08 0 
0.6 0.08 0 0.62 0.08 0 0.64 0.08 0 
0.66 0.08 0 0.68 0.08 0 0.7 0.08 0 
0.72 0.08 0 0.74 0.08 0 0.76 0.08 0 
0.78 0.08 0 0.8 0.08 0 0.82 0.08 0 
0.84 0.08 0 0.86 0.08 0 0.88 0.08 0 
0.9 0.08 0 0.92 0.08 0 0.94 0.08 0 
0.96 0.08 0 0.98 0.08 0 1 0.08 0 
0 0.1 0 0.02 0.1 0 0.04 0.1 0 
0.06 0.1 0 0.08 0.1 0 0.1 0.1 0 
0.12 0.1 0 0.14 0.1 0 0.16 0.1 0 
0.18 0.1 0 0.2 0.1 0 0.22 0.1 0 
0.24 0.1 0 0.26 0.1 0 0.28 0.1 0 
0.3 0.1 0 0.32 0.1 0 0.34 0.1 0 
0.36 0.1 0 0.38 0.1 0 0.4 0.1 0 
0.42 0.1 0 0.44 0.1 0 0.46 0.1 0 
0.48 0.1 0 0.5 0.1 0 0.52 0.1 0 
0.54 0.1 0 0.56 0.1 0 0.58 0.1 0 
0.6 0.1 0 0.62 0.1 0 0.64 0.1 0 
0.66 0.1 0 0.68 0.1 0 0.7 0.1 0 
0.72 0.1 0 0.74 0.1 0 0.76 0.1 0 
0.78 0.1 0 0.8 0.1 0 0.82 0.1 0 
0.84 0.1 0 0.86 0.1 0 0.88 0.1 0 
0.9 0.1 0 0.92 0.1 0 0.94 0.1 0 
0.96 0.1 0 0.98 0.1 0 1 0.1 0 
0 0.12 0 0.02 0.12 0 0.04 0.12 0 
0.06 0.12 0 0.08 0.12 0 0.1 0.12 0 
0.12 0.12 0 0.14 0.12 0 0.16 0.12 0 
0.18 0.12 0 0.2 0.12 0 0.22 0.12 0 
0.24 0.12 0 0.26 0.12 0 0.28 0.12 0 
0.3 0.12 0 0.32 0.12 0 0.34 0.12 0 
0.36 0.12 0 0.38 0.12 0 0.4 0.12 0 
0.42 0.12 0 0.44 0.12 0 0.46 0.12 0 
0.48 0.12 0 0.5 0.12 0 0.52 0.12 0 
0.54 0.12 0 0.56 0.12 0 0.58 0.12 0 
0.6 0.12 0 0.62 0.12 0 0.64 0.12 0 
0.66 0.12 0 0.68 0.12 0 0.7 0.12 0 
0.72 0.12 0 0.74 0.12 0 0.76 0.12 0 
0.78 0.12 0 0.8 0.12 0 0.82 0.12 0 
0.84 0.12 0 0.86 0.12 0 0.88 0.12 0 
0.9 0.12 0 0.92 0.12 0 0.94 0.12 0 
0.96 0.12 0 0.98 0.12 0 1 0.12 0 
0 0.14 0 0.02 0.14 0 0.04 0.14 0 
0.06 0.14 0 0.08 0.14 0 0.1 0.14 0 
0.12 0.14 0 0.14 0.14 0 0.16 0.14 0 
0.18 0.14 0 0.2 0.14 0 0.22 0.14 0 
0.24 0.14 0 0.26 0.14 0 0.28 0.14 0 
0.3 0.14 0 0.32 0.14 0 0.34 0.14 0 
0.36 0.14 0 0.38 0.14 0 0.4 0.14 0 
0.42 0.14 0 0.44 0.14 0 0.46 0.14 0 
0.48 0.14 0 0.5 0.14 0 0.52 0.14 0 
0.54 0.14 0 0.56 0.14 0 0.58 0.14 0 
0.6 0.14 0 0.62 0.14 0 0.64 0.14 0 
0.66 0.14 0 0.68 0.14 0 0.7 0.14 0 
0.72 0.14 0 0.74 0.14 0 0.76 0.14 0 
0.78 0.14 0 0.8 0.14 0 0.82 0.14 0 
0.84 0.14 0 0.86 0.14 0 0.88 0.14 0 
0.9 0.14 0 0.92 0.14 0 0.94 0.14 0 
0.96 0.14 0 0.98 0.14 0 1 0.14 0 
0 0.16 0 0.02 0.16 0 0.04 0.16 0 
0.06 0.16 0 0.08 0.16 0 0.1 0.16 0 
0.12 0.16 0 0.14 0.16 0 0.16 0.16 0 
0.18 0.16 0 0.2 0.16 0 0.22 0.16 0 
0.24 0.16 0 0.26 0.16 0 0.28 0.16 0 
0.3 0.16 0 0.32 0.16 0 0.34 0.16 0 
0.36 0.16 0 0.38 0.16 0 0.4 0.16 0 
0.42 0.16 0 0.44 0.16 0 0.46 0.16 0 
0.48 0.16 0 0.5 0.16 0 0.52 0.16 0 
0.54 0.16 0 0.56 0.16 0 0.58 0.16 0 
0.6 0.16 0 0.62 0.16 0 0.64 0.16 0 
0.66 0.16 0 0.68 0.16 0 0.7 0.16 0 
0.72 0.16 0 0.74 0.16 0 0.76 0.16 0 
0.78 0.16 0 0.8 0.16 0 0.82 0.16 0 
0.84 0.16 0 0.86 0.16 0 0.88 0.16 0 
0.9 0.16 0 0.92 0.16 0 0.94 0.16 0 
0.96 0.16 0 0.98 0.16 0 1 0.16 0 
0 0.18 0 0.02 0.18 0 0.04 0.18 0 
0.06 0.18 0 0.08 0.18 0 0.1 0.18 0 
0.12 0.18 0 0.14 0.18 0 0.16 0.18 0 
0.18 0.18 0 0.2 0.18 0 0.22 0.18 0 
0.24 0.18 0 0.26 0.18 0 0.28 0.18 0 
0.3 0.18 0 0.32 0.18 0 0.34 0.18 0 
0.36 0.18 0 0.38 0.18 0 0.4 0.18 0 
0.42 0.18 0 0.44 0.18 0 0.46 0.18 0 
0.48 0.18 0 0.5 0.18 0 0.52 0.18 0 
0.54 0.18 0 0.56 0.18 0 0.58 0.18 0 
0.6 0.18 0 0.62 0.18 0 0.64 0.18 0 
0.66 0.18 0 0.68 0.18 0 0.7 0.18 0 
0.72 0.18 0 0.74 0.18 0 0.76 0.18 0 
0.78 0.18 0 0.8 0.18 0 0.82 0.18 0 
0.84 0.18 0 0.86 0.18 0 0.88 0.18 0 
0.9 0.18 0 0.92 0.18 0 0.94 0.18 0 
0.96 0.18 0 0.98 0.18 0 1 0.18 0 
0 0.2 0 0.02 0.2 0 0.04 0.2 0 
0.06 0.2 0 0.08 0.2 0 0.1 0.2 0 
0.12 0.2 0 0.14 0.2 0 0.16 0.2 0 
0.18 0.2 0 0.2 0.2 0 0.22 0.2 0 
0.24 0.2 0 0.26 0.2 0 0.28 0.2 0 
0.3 0.2 0 0.32 0.2 0 0.34 0.2 0 
0.36 0.2 0 0.38 0.2 0 0.4 0.2 0 
0.42 0.2 0 0.44 0.2 0 0.46 0.2 0 
0.48 0.2 0 0.5 0.2 0 0.52 0.2 0 
0.54 0.2 0 0.56 0.2 0 0.58 0.2 0 
0.6 0.2 0 0.62 0.2 0 0.64 0.2 0 
0.66 0.2 0 0.68 0.2 0 0.7 0.2 0 
0.72 0.2 0 0.74 0.2 0 0.76 0.2 0 
0.78 0.2 0 0.8 0.2 0 0.82 0.2 0 
0.84 0.2 0 0.86 0.2 0 0.88 0.2 0 
0.9 0.2 0 0.92 0.2 0 0.94 0.2 0 
0.96 0.2 0 0.98 0.2 0 1 0.2 0 
0 0.22 0 0.02 0.22 0 0.04 0.22 0 
0.06 0.22 0 0.08 0.22 0 0.1 0.22 0 
0.12 0.22 0 0.14 0.22 0 0.16 0.22 0 
0.18 0.22 0 0.2 0.22 0 0.22 0.22 0 
0.24 0.22 0 0.26 0.22 0 0.28 0.22 0 
0.3 0.22 0 0.32 0.22 0 0.34 0.22 0 
0.36 0.22 0 0.38 0.22 0 0.4 0.22 0 
0.42 0.22 0 0.44 0.22 0 0.46 0.22 0 
0.48 0.22 0 0.5 0.22 0 0.52 0.22 0 
0.54 0.22 0 0.56 0.22 0 0.58 0.22 0 
0.6 0.22 0 0.62 0.22 0 0.64 0.22 0 
0.66 0.22 0 0.68 0.22 0 0.7 0.22 0 
0.72 0.22 0 0.74 0.22 0 0.76 0.22 0 
0.78 0.22 0 0.8 0.22 0 0.82 0.22 0 
0.84 0.22 0 0.86 0.22 0 0.88 0.22 0 
0.9 0.22 0 0.92 0.22 0 0.94 0.22 0 
0.96 0.22 0 0.98 0.22 0 1 0.22 0 
0 0.24 0 0.02 0.24 0 0.04 0.24 0 
0.06 0.24 0 0.08 0.24 0 0.1 0.24 0 
0.12 0.24 0 0.14 0.24 0 0.16 0.24 0 
0.18 0.24 0 0.2 0.24 0 0.22 0.24 0 
0.24 0.24 0 0.26 0.24 0 0.28 0.24 0 
0.3 0.24 0 0.32 0.24 0 0.34 0.24 0 
0.36 0.24 0 0.38 0.24 0 0.4 0.24 0 
0.42 0.24 0 0.44 0.24 0 0.46 0.24 0 
0.48 0.24 0 0.5 0.24 0 0.52 0.24 0 
0.54 0.24 0 0.56 0.24 0 0.58 0.24 0 
0.6 0.24 0 0.62 0.24 0 0.64 0.24 0 
0.66 0.24 0 0.68 0.24 0 0.7 0.24 0 
0.72 0.24 0 0.74 0.24 0 0.76 0.24 0 
0.78 0.24 0 0.8 0.24 0 0.82 0.24 0 
0.84 0.24 0 0.86 0.24 0 0.88 0.24 0 
0.9 0.24 0 0.92 0.24 0 0.94 0.24 0 
0.96 0.24 0 0.98 0.24 0 1 0.24 0 
0 0.26 0 0.02 0.26 0 0.04 0.26 0 
0.06 0.26 0 0.08 0.26 0 0.1 0.26 0 
0.12 0.26 0 0.14 0.26 0 0.16 0.26 0 
0.18 0.26 0 0.2 0.26 0 0.22 0.26 0 
0.24 0.26 0 0.26 0.26 0 0.28 0.26 0 
0.3 0.26 0 0.32 0.26 0 0.34 0.26 0 
0.36 0.26 0 0.38 0.26 0 0.4 0.26 0 
0.42 0.26 0 0.44 0.26 0 0.46 0.26 0 
0.48 0.26 0 0.5 0.26 0 0.52 0.26 0 
0.54 0.26 0 0.56 0.26 0 0.58 0.26 0 
0.6 0.26 0 0.62 0.26 0 0.64 0.26 0 
0.66 0.26 0 0.68 0.26 0 0.7 0.26 0 
0.72 0.26 0 0.74 0.26 0 0.76 0.26 0 
0.78 0.26 0 0.8 0.26 0 0.82 0.26 0 
0.84 0.26 0 0.86 0.26 0 0.88 0.26 0 
0.9 0.26 0 0.92 0.26 0 0.94 0.26 0 
0.96 0.26 0 0.98 0.26 0 1 0.26 0 
0 0.28 0 0.02 0.28 0 0.04 0.28 0 
0.06 0.28 0 0.08 0.28 0 0.1 0.28 0 
0.12 0.28 0 0.14 0.28 0 0.16 0.28 0 
0.18 0.28 0 0.2 0.28 0 0.22 0.28 0 
0.24 0.28 0 0.26 0.28 0 0.28 0.28 0 
0.3 0.28 0 0.32 0.28 0 0.34 0.28 0 
0.36 0.28 0 0.38 0.28 0 0.4 0.28 0 
0.42 0.28 0 0.44 0.28 0 0.46 0.28 0 
0.48 0.28 0 0.5 0.28 0 0.52 0.28 0 
0.54 0.28 0 0.56 0.28 0 0.58 0.28 0 
0.6 0.28 0 0.62 0.28 0 0.64 0.28 0 
0.66 0.28 0 0.68 0.28 0 0.7 0.28 0 
0.72 0.28 0 0.74 0.28 0 0.76 0.28 0 
0.78 0.28 0 0.8 0.28 0 0.82 0.28 0 
0.84 0.28 0 0.86 0.28 0 0.88 0.28 0 
0.9 0.28 0 0.92 0.28 0 0.94 0.28 0 
0.96 0.28 0 0.98 0.28 0 1 0.28 0 
0 0.3 0 0.02 0.3 0 0.04 0.3 0 
0.06 0.3 0 0.08 0.3 0 0.1 0.3 0 
0.12 0.3 0 0.14 0.3 0 0.16 0.3 0 
0.18 0.3 0 0.2 0.3 0 0.22 0.3 0 
0.24 0.3 0 0.26 0.3 0 0.28 0.3 0 
0.3 0.3 0 0.32 0.3 0 0.34 0.3 0 
0.36 0.3 0 0.38 0.3 0 0.4 0.3 0 
0.42 0.3 0 0.44 0.3 0 0.46 0.3 0 
0.48 0.3 0 0.5 0.3 0 0.52 0.3 0 
0.54 0.3 0 0.56 0.3 0 0.58 0.3 0 
0.6 0.3 0 0.62 0.3 0 0.64 0.3 0 
0.66 0.3 0 0.68 0.3 0 0.7 0.3 0 
0.72 0.3 0 0.74 0.3 0 0.76 0.3 0 
0.78 0.3 0 0.8 0.3 0 0.82 0.3 0 
0.84 0.3 0 0.86 0.3 0 0.88 0.3 0 
0.9 0.3 0 0.92 0.3 0 0.94 0.3 0 
0.96 0.3 0 0.98 0.3 0 1 0.3 0 
0 0.32 0 0.02 0.32 0 0.04 0.32 0 
0.06 0.32 0 0.08 0.32 0 0.1 0.32 0 
0.12 0.32 0 0.14 0.32 0 0.16 0.32 0 
0.18 0.32 0 0.2 0.32 0 0.22 0.32 0 
0.24 0.32 0 0.26 0.32 0 0.28 0.32 0 
0.3 0.32 0 0.32 0.32 0 0.34 0.32 0 
0.36 0.32 0 0.38 0.32 0 0.4 0.32 0 
0.42 0.32 0 0.44 0.32 0 0.46 0.32 0 
0.48 0.32 0 0.5 0.32 0 0.52 0.32 0 
0.54 0.32 0 0.56 0.32 0 0.58 0.32 0 
[...]
CELL_DATA 2500
FIELD FieldData 2
pressure 1 2500 double
-0.004573788968 -0.0045772889921 -0.0045797299058 -0.004579333646 -0.0045755728987 -0.0045684043526 -0.004557893261 -0.0045440931951 -0.0045270301883 
-0.0045067128047 -0.0044831425601 -0.004456320565 -0.0044262514473 -0.0043929459677 -0.004356423167 -0.0043167123007 -0.0042738547711 -0.0042279060829 
-0.0041789378264 -0.0041270397004 -0.0040723215277 -0.0040149152148 -0.0039549766319 -0.0038926873353 -0.0038282559376 -0.0037619189747 -0.0036939412439 
-0.0036246160018 -0.0035542800655 -0.0034833104098 -0.00341208984 -0.0033410340416 -0.0032705862445 -0.0032012130487 -0.0031334001032 -0.003067647222 
-0.0030044628216 -0.0029443577037 -0.002887838299 -0.0028353995708 -0.0027875178955 -0.0027446444339 -0.0027071997979 -0.0026755709105 -0.002650109409 
-0.00263112318 -0.0026188284329 -0.0026131760136 -0.0026133889593 -0.0026170281975 -0.0045703040354 -0.0045738232748 -0.0045754470162 -0.0045744227404 
-0.0045703599464 -0.0045631141434 -0.0045526478954 -0.0045389561176 -0.0045220382991 -0.0045018924227 -0.0044785159205 -0.0044519080803 -0.0044220724062 
-0.0043890187426 -0.0043527651942 -0.004313340048 -0.004270783664 -0.0042251504241 -0.004176510733 -0.0041249530137 -0.0040705856974 -0.0040135392258 
-0.0039539679586 -0.0038920518296 -0.0038279977349 -0.0037620405573 -0.0036944434375 -0.0036254963062 -0.0035555514611 -0.0034849614676 -0.0034141131307 
-0.0033434220467 -0.0032733302283 -0.0032043027768 -0.0031368238159 -0.003071391674 -0.0030085133385 -0.0029486982477 -0.0028924515229 -0.002840266804 
-0.0027926189178 -0.0027499566083 -0.0027126953601 -0.0026812094369 -0.0026558194912 -0.0026367655289 -0.0026241438042 -0.0026177782315 -0.0026170266279 
-0.0026206763267 -0.004567947442 -0.0045723390058 -0.0045739782587 -0.004572771299 -0.0045685777203 -0.0045612998202 -0.0045508820796 -0.0045372938107 
-0.0045205164106 -0.0045005371036 -0.0044773470123 -0.0044509413213 -0.0044213204084 -0.0043884913299 -0.0043524694998 -0.0043132804485 -0.0042709617059 
-0.0042255647334 -0.0041771568969 -0.0041258234774 -0.0040716697724 -0.0040148231307 -0.0039554348147 -0.0038936818104 -0.0038297685299 -0.0037639282021 
-0.0036964239875 -0.0036275501351 -0.0035576474712 -0.0034870628628 -0.0034161869801 -0.0033454377604 -0.0032752593101 -0.0032061191694 -0.0031385044789 
-0.0030729172416 -0.0030098687584 -0.0029498733152 -0.0028934412333 -0.0028410714294 -0.0027932436236 -0.002750410256 -0.0027129878442 -0.002681346588 
-0.0026557949589 -0.0026365526057 -0.002623702505 -0.0026171219549 -0.0026164353328 -0.0026211380201 -0.0045686937398 -0.0045738067959 -0.0045756958672 
-0.0045745386572 -0.004570355849 -0.0045631140358 -0.0045527718811 -0.0045392947 -0.0045226559071 -0.0045028354419 -0.0044798184977 -0.0044535953472 
-0.0044241619788 -0.0043915212517 -0.0043556843671 -0.004316672572 -0.0042745189663 -0.0042292704194 -0.00418098956 -0.0041297569495 -0.0040756731634 
-0.0040188607822 -0.003959466518 -0.0038976632725 -0.0038336519579 -0.0037676632738 -0.0036999596738 -0.0036308380784 -0.0035606246815 -0.003489673062 
-0.0034183758449 -0.0033471544671 -0.0032764577384 -0.0032067591702 -0.0031385532149 -0.0030723505029 -0.0030086721593 -0.00294804329 -0.0028909857349 
-0.0028380102089 -0.0027896079477 -0.002746241894 -0.002708337189 -0.0026762701008 -0.0026503533252 -0.0026308140513 -0.0026177613249 -0.002611147511 
-0.0026107571939 -0.002616313415 -0.0045732470915 -0.0045787986544 -0.0045809393698 -0.0045799179148 -0.0045758261444 -0.004568672219 -0.0045584322965 
-0.0045450756102 -0.004528573489 -0.0045089015277 -0.0044860399758 -0.0044599740226 -0.0044306944896 -0.0043981989633 -0.0043624932113 -0.0043235928147 
-0.0042815249746 -0.0042363304236 -0.0041880656461 -0.0041368049106 -0.0040826423635 -0.0040256944026 -0.0039661019079 -0.0039040323058 -0.0038396816976 
-0.0037732769471 -0.003705077697 -0.0036353794158 -0.0035645058413 -0.0034928165025 -0.0034207062329 -0.0033486013876 -0.003276957996 -0.003206258962 
-0.00313701023 -0.0030697359205 -0.0030049724605 -0.0029432617656 -0.0028851435781 -0.0028311470863 -0.0027817819496 -0.0027375288152 -0.0026988292475 
-0.0026660745999 -0.0026395925858 -0.0026196292211 -0.002606323384 -0.0025996751576 -0.0025995258218 -0.0026056076545 -0.0045817591432 -0.0045875676349 
-0.0045899132699 -0.0045890462501 -0.0045850807192 -0.0045780443758 -0.004567924706 -0.0045546952058 -0.0045383267863 -0.0045187920275 -0.0044960667286 
-0.0044701308202 -0.0044409693749 -0.004408573801 -0.004372943303 -0.0043340865247 -0.0042920233497 -0.0042467871356 -0.00419842659 -0.0041470079894 
-0.0040926177058 -0.0040353644798 -0.0039753817358 -0.0039128300411 -0.0038478994183 -0.0037808114953 -0.0037118215071 -0.0036412210924 -0.0035693408653 
-0.0034965432605 -0.0034232267748 -0.0033498245796 -0.0032768025457 -0.0032046563861 -0.0031339077555 -0.0030650992305 -0.0029987881746 -0.0029355395334 
-0.0028759176513 -0.0028204772433 -0.0027697536951 -0.0027242528499 -0.0026844403418 -0.0026507302318 -0.0026234719902 -0.0026029335378 -0.0025892765145 
-0.0025825209874 -0.002582509433 -0.0025889216585 -0.0045942156191 -0.004600202222 -0.0046027186607 -0.004602004688 -0.0045981784739 -0.0045912747413 
-0.0045812861015 -0.0045681879912 -0.0045519504023 -0.0045325428221 -0.00450993645 -0.004484105604 -0.0044550289217 -0.0044226907429 -0.0043870826027 
-0.004348204913 -0.0043060691732 -0.0042606996084 -0.0042121355521 -0.0041604339673 -0.0041056717051 -0.0040479480867 -0.0039873875826 -0.003924142376 
-0.0038583949011 -0.0037903602956 -0.0037202885434 -0.0036484662948 -0.0035752337802 -0.0035009555132 -0.0034260352705 -0.0033509150414 -0.003276073232 
-0.0032020218687 -0.0031293026559 -0.003058481802 -0.0029901435691 -0.0029248825812 -0.0028632949934 -0.0028059686746 -0.0027534726124 -0.0027063457666 
-0.0026650855213 -0.0026301355546 -0.00260187209 -0.0025805857898 -0.002566454308 -0.0025595008137 -0.0025595470045 -0.0025662164135 -0.0046105842842 
-0.0046167296841 -0.004619404064 -0.0046188416541 -0.0046151610174 -0.0046083987758 -0.0045985487639 -0.0045855859996 -0.0045694782567 -0.0045501911715 
-0.0045276907991 -0.0045019451536 -0.0044729256743 -0.0044406086352 -0.0044049767273 -0.0043660212273 -0.0043237433496 -0.0042781568165 -0.0042292901892 
-0.0041771891337 -0.0041219192078 -0.0040635685979 -0.0040022509497 -0.0039381082449 -0.0038713137078 -0.0038020745829 -0.0037306347159 -0.0036572752732 
-0.0035823442329 -0.0035062093715 -0.0034292810703 -0.0033520120184 -0.0032748957993 -0.0031984642978 -0.0031232837843 -0.0030499495748 -0.0029790792232 
-0.0029113042648 -0.0028472605964 -0.0027875776722 -0.0027328667666 -0.0026837085861 -0.002640640419 -0.0026041426099 -0.0025746230844 -0.0025523966429 
-0.0025376533348 -0.0025304111596 -0.0025304638145 -0.0025373856713 -0.0046308522724 -0.0046371645505 -0.0046399995143 -0.0046395927706 -0.0046360645672 
-0.0046294522341 -0.0046197489049 -0.0046069274872 -0.0045909522302 -0.0045717840267 -0.0045493828956 -0.0045237097822 -0.0044947279581 -0.0044624045471 
-0.0044267126401 -0.0043876323569 -0.0043451535817 -0.0042992779551 -0.0042500212123 -0.0041974160069 -0.0041415146034 -0.0040823919588 -0.0040201487559 
-0.0039549147149 -0.0038868518426 -0.0038161576494 -0.0037430682338 -0.0036678602795 -0.0035908830236 -0.0035125110533 -0.0034331619337 -0.0033533005828 
-0.0032734382686 -0.0031941302815 -0.0031159721175 -0.0030395940216 -0.0029656537965 -0.0028948278759 -0.0028278007506 -0.0027652529424 -0.0027078478091 
-0.0026562175161 -0.0026109483903 -0.0025725653539 -0.0025415138864 -0.0025181357466 -0.0025026324913 -0.0024950130629 -0.002495039866 -0.0025022415211 
-0.0046550274973 -0.004661525829 -0.0046645333258 -0.0046642921557 -0.0046609266539 -0.0046544751841 -0.0046449294817 -0.004632259253 -0.0046164242831 
-0.0045973796769 -0.0045750786279 -0.0045494740124 -0.0045205199207 -0.0044881736882 -0.0044523967162 -0.0044131572833 -0.0043704321332 -0.004324208924 
-0.0042744888709 -0.0042212893915 -0.0041646473102 -0.0041046218928 -0.004041298492 -0.003974792062 -0.0039052509172 -0.0038328605372 -0.0037578472633 
-0.00368048176 -0.003601110376 -0.0035201160753 -0.0034379238918 -0.0033550121347 -0.0032719119804 -0.0031892055938 -0.0031075225208 -0.0030275341563 
-0.0029499461561 -0.0028754887507 -0.0028049050296 -0.0027389374044 -0.0026783125807 -0.0026237254175 -0.0025758219037 -0.0025351808718 -0.0025022926086 
-0.0024775301753 -0.0024611074474 -0.0024530218413 -0.0024530006028 -0.0024605243767 -0.0046831332484 -0.0046898412299 -0.0046930385822 -0.0046929777176 
-0.0046897893186 -0.0046835136231 -0.0046741408037 -0.0046616368584 -0.0046459562062 -0.0046270474577 -0.0046048559927 -0.0045793256958 -0.0045504009226 
-0.0045180271625 -0.0044821537553 -0.0044427351463 -0.004399733367 -0.0043531203394 -0.0043028805103 -0.0042490139448 -0.0041915393224 -0.0041304977107 
-0.0040659561834 -0.0039980119856 -0.0039267968029 -0.0038524811464 -0.0037752788169 -0.0036954513585 -0.0036133386766 -0.0035293326102 -0.0034438652398 
-0.0033574288664 -0.0032705764405 -0.00318392031 -0.0030981289852 -0.0030139216343 -0.0029320601097 -0.0028533384126 -0.0027785696389 -0.002708570613 
-0.0026441445655 -0.0025860622962 -0.0025350420929 -0.0024917279446 -0.0024566639308 -0.002430260181 -0.0024127445967 -0.0024041004671 -0.0024040139699 
-0.0024119109328 -0.00471520382 -0.0047221471079 -0.0047255550312 -0.0047256931314 -0.0047227004316 -0.0047166199669 -0.0047074405632 -0.0046951240663 
-0.0046796190579 -0.004660866825 -0.0046388041444 -0.0046133654478 -0.0045844834655 -0.0045520916575 -0.0045161253079 -0.0044765238228 -0.0044332326947 
-0.0043862060736 -0.00433540954 -0.0042808230707 -0.0042224446403 -0.0041602938859 -0.0040944164188 -0.0040248883232 -0.0039518209835 -0.0038753662305 
-0.0037957217057 -0.0037131362394 -0.0036279377728 -0.0035405275432 -0.003451343333 -0.0033608912665 -0.0032697473477 -0.0031785571017 -0.003088032916 
-0.0029989487203 -0.002912131705 -0.0028284508899 -0.0027488025175 -0.0026740924627 -0.0026052160666 -0.0025430359044 -0.0024883578111 -0.0024419046345 
-0.002404285294 -0.002375954178 -0.0023571553605 -0.0023478544492 -0.0023476880799 -0.0023560166845 -0.0047512818994 -0.0047584874939 -0.0047621292229 
-0.0047624883216 -0.0047597140073 -0.0047538531434 -0.0047448934062 -0.0047327923761 -0.0047174922844 -0.0046989264837 -0.0046770228338 -0.004651704716 
-0.0046228931075 -0.004590507702 -0.0045544687745 -0.0045146989312 -0.0044711254339 -0.0044236825851 -0.0043723145868 -0.0043169787469 -0.0042576490884 
-0.0041943205542 -0.0041270135154 -0.0040557787423 -0.0039807030009 -0.003901915015 -0.0038195916457 -0.003733964352 -0.0036453416335 -0.0035541343693 
-0.0034607835659 -0.0033658079902 -0.0032698071558 -0.0031734621876 -0.0030775340827 -0.0029828588443 -0.0028903390274 -0.0028009313749 -0.0027156304458 
-0.0026354483931 -0.0025613913044 -0.0024944327017 -0.0024354845863 -0.0023853654592 -0.0023447626412 -0.0023141835089 -0.0022938906269 -0.0022838269078 
-0.0022835679988 -0.0022923947555 -0.0047914170599 -0.004798913185 -0.0048028141182 -0.0048034193259 -0.0048008901479 -0.0047952782609 -0.0047865705687 
-0.0047747202948 -0.0047596629406 -0.0047413238103 -0.0047196206327 -0.004694465588 -0.0046657666452 -0.0046334288733 -0.0045973560875 -0.0045574527165 
-0.0045136258647 -0.0044657878597 -0.0044138590097 -0.0043577709283 -0.0042974705295 -0.0042329241778 -0.004164122602 -0.0040910866727 -0.0040138735212 
-0.0039325832594 -0.0038473663735 -0.0037584312453 -0.0036660563636 -0.0035706626124 -0.0034726901915 -0.0033726678926 -0.0032712180005 -0.0031690588426 
-0.0030670043857 -0.0029659601749 -0.0028669149642 -0.0027709275246 -0.0026791083518 -0.0025925963295 -0.0025125307881 -0.0024400195983 -0.00237610383 
-0.0023217184002 -0.0022776457392 -0.0022444567703 -0.0022224349009 -0.0022114933349 -0.0022111316302 -0.002220532794 -0.0048356648588 -0.0048434810382 
-0.0048476686082 -0.0048485480092 -0.0048462946919 -0.0048409662598 -0.0048325493039 -0.0048209926365 -0.0048062251368 -0.004788163287 -0.0047667144982 
-0.0047417790757 -0.0047132511494 -0.0046810202161 -0.0046449724724 -0.0046049926157 -0.0045609658652 -0.0045127803024 -0.004460329685 -0.0044035171456 
-0.0043422586085 -0.004276487579 -0.0042061606539 -0.0041312633639 -0.0040518171459 -0.0039678872348 -0.0038795910057 -0.0037871073662 -0.0036906690899 
-0.0035907086876 -0.0034876588861 -0.0033820541365 -0.0032745372547 -0.003165864085 -0.0030569050683 -0.0029486426156 -0.0028421632902 -0.0027386439903 
-0.0026393316297 -0.0025455162072 -0.0024584975904 -0.0023795468036 -0.0023098624527 -0.0022505217666 -0.0022024230615 -0.00216621364 -0.0021421999848 
-0.0021302558736 -0.0021297849656 -0.0021398490058 -0.0048840862776 -0.0048922534645 -0.0048967571439 -0.0048979416951 -0.0048959988603 -0.0048909934649 
-0.004882912263 -0.0048717000312 -0.0048572787304 -0.0048395558395 -0.0048184283173 -0.0047937838662 -0.0047655023511 -0.0047334567498 -0.0046975146288 
-0.0046575395794 -0.0046133931205 -0.0045649369047 -0.0045120359319 -0.0044545610795 -0.0043923936151 -0.0043254299935 -0.0042535870935 -0.0041768090736 
-0.0040950750556 -0.0040084075586 -0.0039168826461 -0.0038206403953 -0.0037198572442 -0.0036149679878 -0.003506391187 -0.0033946609325 -0.0032804362083 
-0.003164508777 -0.0030478077118 -0.0029313990639 -0.0028164793197 -0.0027043614391 -0.0025964525548 -0.0024942228907 -0.002399166179 -0.0023127523354 
-0.0022363732263 -0.0021712810789 -0.0021185162093 -0.0020788180492 -0.0020525180843 -0.002039437204 -0.0020388570675 -0.0020496880151 -0.0049367473866 
-0.004945298156 -0.0049501494693 -0.0049516728857 -0.0049500789469 -0.0049454410979 -0.0049377470944 -0.0049269379188 -0.0049129285376 -0.0048956176992 
-0.0048748914492 -0.0048506248393 -0.0048226828644 -0.0047909215047 -0.0047551887075 -0.0047153257269 -0.0046711687709 -0.0046225515278 -0.004569306783 
-0.0045112704828 -0.0044482854428 -0.0043802057934 -0.0043069032894 -0.0042282741109 -0.0041442468981 -0.0040547930847 -0.0039599377872 -0.0038597729368 
-0.0037544020336 -0.0036442492451 -0.0035297110922 -0.0034113127254 -0.0032897219157 -0.0031657618986 -0.0030404202667 -0.0029148522068 -0.002790376345 
-0.0026684614022 -0.0025507021541 -0.002438783844 -0.0023344349452 -0.0022393689967 -0.0021552164375 -0.0020834462219 -0.0020252739369 -0.0019815507236 
-0.0019526343948 -0.0019382742539 -0.0019375952793 -0.0019493172308 -0.0049937192362 -0.0050026880226 -0.0050079205236 -0.0050098191562 -0.0050086160533 
-0.0050043950241 -0.0049971457947 -0.0049868057819 -0.0049732835104 -0.0049564689551 -0.0049362374075 -0.0049124511586 -0.0048849602506 -0.004853603195 
-0.0048182076456 -0.0047785916022 -0.0047345651022 -0.0046859309753 -0.0046324883171 -0.0045740348021 -0.0045103703922 -0.0044413024964 -0.0043666515164 
-0.004286258009 -0.0041999921036 -0.0041077633932 -0.004009534458 -0.0039053371236 -0.0037952015658 -0.0036794891114 -0.0035585829031 -0.003432986017 
-0.0033033629168 -0.0031705597173 -0.003035618994 -0.0028997882585 -0.0027645197325 -0.0026314588898 -0.0025024194863 -0.0023793433215 -0.0022642439845 
-0.002159135009 -0.0020659434693 -0.0019864090404 -0.0019219655985 -0.0018736007353 -0.0018416989154 -0.001825911753 -0.0018251609714 -0.0018379242233 
-0.0050550780196 -0.0050645013556 -0.0050701506176 -0.0050724632141 -0.0050716960791 -0.0050679455168 -0.0050612041389 -0.0050514066372 -0.0050384555529 
-0.0050222323888 -0.0050026020959 -0.0049794144209 -0.0049525045899 -0.0049216934329 -0.0048867881981 -0.0048475833671 -0.0048038607352 -0.0047553920001 
-0.0047019397648 -0.0046432604684 -0.0045791078535 -0.0045092373028 -0.004433411542 -0.0043514084321 -0.0042630292938 -0.0041681109252 -0.0040665379467 
-0.0039582574374 -0.0038432885357 -0.0037217656061 -0.0035941297533 -0.0034608336339 -0.0033225190856 -0.0031800408058 -0.0030344879153 -0.0028871995002 
-0.002739770633 -0.0025940450631 -0.0024520908117 -0.0023161556016 -0.0021886002989 -0.0020718100046 -0.0019680836306 -0.0018795023509 -0.0018077748905 
-0.0017540572314 -0.0017187592431 -0.0017013980846 -0.0017006288287 -0.0017146182614 -0.0051209055294 -0.0051308223471 -0.0051369259127 -0.0051396932609 
-0.0051394099692 -0.005136187079 -0.0051300215316 -0.0051208463287 -0.0051085585714 -0.0050930321087 -0.0050741220976 -0.0050516664125 -0.0050254856979 
-0.0049953837775 -0.0049611477457 -0.004922547559 -0.004879337425 -0.0048312559617 -0.0047780279699 -0.0047193662157 -0.0046549745383 -0.0045845515801 
-0.0045077966839 -0.0044244163547 -0.0043341343333 -0.004236702196 -0.0041319146758 -0.0040196260482 -0.0038997699977 -0.0037722999235 -0.0036376522672 
-0.0034962119562 -0.0033485761705 -0.0031955877557 -0.0030383668525 -0.0028783371527 -0.0027172417556 -0.002557143279 -0.0024004027066 -0.0022496318228 
-0.0021076153413 -0.0019772009969 -0.0018611576775 -0.0017620022056 -0.001681794084 -0.0016219000101 -0.0015827517478 -0.0015636799761 -0.0015629857741 
-0.0015784323358 -0.0051912900197 -0.0052017420394 -0.0052083392804 -0.0052116038075 -0.0052118541163 -0.0052092187714 -0.0052037009317 -0.0051952329737 
-0.0051837076572 -0.0051689921445 -0.0051509328389 -0.0051293564921 -0.0051040704475 -0.0050748623181 -0.005041499158 -0.0050037276452 -0.0049612737516 
-0.0049138430607 -0.0048611212512 -0.0048027757289 -0.0047384573135 -0.0046678040946 -0.0045904456028 -0.0045060101437 -0.0044141328522 -0.004314468716 
-0.0042067068203 -0.0040905907805 -0.0039659447287 -0.0038324932525 -0.0036906549042 -0.0035407118904 -0.0033831852014 -0.0032188755206 -0.0030489088019 
-0.0028747772892 -0.0026983699421 -0.0025219850308 -0.0023483166859 -0.0021804073312 -0.0020215590234 -0.0018751987057 -0.0017446953628 -0.0016331291874 
-0.001543014715 -0.0014759873024 -0.0014324940188 -0.0014116043718 -0.0014111431784 -0.0014283416336 -0.0052663276145 -0.0052773597719 -0.0052844917781 
-0.0052882968252 -0.0052891313451 -0.0052871448866 -0.0052823489524 -0.0052746767879 -0.0052640182591 -0.0052502351649 -0.0052331664252 -0.005212629365 
-0.0051884194267 -0.0051603090859 -0.0051280470481 -0.0050913575536 -0.005049939302 -0.0050034650094 -0.0049515813575 -0.0048939089855 -0.0048300441527 
-0.0047595605114 -0.004682013368 -0.0045969447275 -0.0045038924277 -0.0044024005274 -0.0042920356463 -0.0041724076037 -0.0040431977016 -0.0039039265219 
-0.0037548659209 -0.0035961892023 -0.0034283038323 -0.0032519266872 -0.0030681503933 -0.0028785054099 -0.0026850115753 -0.002490210263 -0.0022971666809 
-0.0021094291425 -0.0019309319808 -0.0017658317249 -0.0016182706056 -0.0014920664533 -0.0013903338142 -0.0013150576876 -0.0012666896522 -0.0012439309041 
-0.0012439558155 -0.0012632859292 -0.0053461243623 -0.005357785399 -0.0053654946927 -0.0053698836043 -0.0053713524793 -0.0053700759888 -0.0053660764834 
-0.0053592901377 -0.005349605631 -0.0053368810884 -0.0053209499988 -0.0053016222107 -0.0052786831107 -0.00525189216 -0.0052209818777 -0.0051856557335 
-0.005145586941 -0.0051004168437 -0.0050497536637 -0.0049931718861 -0.0049302119936 -0.0048603815556 -0.0047831572353 -0.0046979894616 -0.0046043087417 
-0.0045015361169 -0.004389097681 -0.0042664438744 -0.0041330769884 -0.0039884102196 -0.0038322564371 -0.0036647920472 -0.0034862422866 -0.0032971766128 
-0.0030985959789 -0.0028920179177 -0.0026795572266 -0.0024639913423 -0.0022487900304 -0.0020380894352 -0.0018365915156 -0.0016493705177 -0.0014815711546 
-0.00133799072 -0.0012225525789 -0.0011377124658 -0.0010839144457 -0.0010593355522 -0.0010602507451 -0.0010822168246 -0.0054307991921 -0.005443142315 
-0.0054514724902 -0.0054564874275 -0.0054586386058 -0.0054581306069 -0.0054549998841 -0.0054491879766 -0.0054405844605 -0.0054290462179 -0.0054144036895 
-0.005396461735 -0.0053749982337 -0.0053497627631 -0.0053204740509 -0.0052868179152 -0.0052484446716 -0.0052049667749 -0.0051559563237 -0.0051009431504 