# vtk DataFile Version 4.1
vtk output
ASCII
DATASET STRUCTURED_GRID
DIMENSIONS 51 51 1
POINTS 2601 float
0 0 0 0.02 0 0 0.04 0 0 
0.06 0 0 0.08 0 0 0.1 0 0 
0.12 0 0 0.14 0 0 0.16 0 0 
0.18 0 0 0.2 0 0 0.22 0 0 
0.24 0 0 0.26 0 0 0.28 0 0 
0.3 0 0 0.32 0 0 0.34 0 0 
0.36 0 0 0.38 0 0 0.4 0 0 
0.42 0 0 0.44 0 0 0.46 0 0 
0.48 0 0 0.5 0 0 0.52 0 0 
0.54 0 0 0.56 0 0 0.58 0 0 
0.6 0 0 0.62 0 0 0.64 0 0 
0.66 0 0 0.68 0 0 0.7 0 0 
0.72 0 0 0.74 0 0 0.76 0 0 
0.78 0 0 0.8 0 0 0.82 0 0 
0.84 0 0 0.86 0 0 0.88 0 0 
0.9 0 0 0.92 0 0 0.94 0 0 
0.96 0 0 0.98 0 0 1 0 0 
0 0.02 0 0.02 0.02 0 0.04 0.02 0 
0.06 0.02 0 0.08 0.02 0 0.1 0.02 0 
0.12 0.02 0 0.14 0.02 0 0.16 0.02 0 
0.18 0.02 0 0.2 0.02 0 0.22 0.02 0 
0.24 0.02 0 0.26 0.02 0 0.28 0.02 0 
0.3 0.02 0 0.32 0.02 0 0.34 0.02 0 
0.36 0.02 0 0.38 0.02 0 0.4 0.02 0 
0.42 0.02 0 0.44 0.02 0 0.46 0.02 0 
0.48 0.02 0 0.5 0.02 0 0.52 0.02 0 
0.54 0.02 0 0.56 0.02 0 0.58 0.02 0 
0.6 0.02 0 0.62 0.02 0 0.64 0.02 0 
0.66 0.02 0 0.68 0.02 0 0.7 0.02 0 
0.72 0.02 0 0.74 0.02 0 0.76 0.02 0 
0.78 0.02 0 0.8 0.02 0 0.82 0.02 0 
0.84 0.02 0 0.86 0.02 0 0.88 0.02 0 
0.9 0.02 0 0.92 0.02 0 0.94 0.02 0 
0.96 0.02 0 0.98 0.02 0 1 0.02 0 
0 0.04 0 0.02 0.04 0 0.04 0.04 0 
0.06 0.04 0 0.08 0.04 0 0.1 0.04 0 
0.12 0.04 0 0.14 0.04 0 0.16 0.04 0 
0.18 0.04 0 0.2 0.04 0 0.22 0.04 0 
0.24 0.04 0 0.26 0.04 0 0.28 0.04 0 
0.3 0.04 0 0.32 0.04 0 0.34 0.04 0 
0.36 0.04 0 0.38 0.04 0 0.4 0.04 0 
0.42 0.04 0 0.44 0.04 0 0.46 0.04 0 
0.48 0.04 0 0.5 0.04 0 0.52 0.04 0 
0.54 0.04 0 0.56 0.04 0 0.58 0.04 0 
0.6 0.04 0 0.62 0.04 0 0.64 0.04 0 
0.66 0.04 0 0.68 0.04 0 0.7 0.04 0 
0.72 0.04 0 0.74 0.04 0 0.76 0.04 0 
0.78 0.04 0 0.8 0.04 0 0.82 0.04 0 
0.84 0.04 0 0.86 0.04 0 0.88 0.04 0 
0.9 0.04 0 0.92 0.04 0 0.94 0.04 0 
0.96 0.04 0 0.98 0.04 0 1 0.04 0 
0 0.06 0 0.02 0.06 0 0.04 0.06 0 
0.06 0.06 0 0.08 0.06 0 0.1 0.06 0 
0.12 0.06 0 0.14 0.06 0 0.16 0.06 0 
0.18 0.06 0 0.2 0.06 0 0.22 0.06 0 
0.24 0.06 0 0.26 0.06 0 0.28 0.06 0 
0.3 0.06 0 0.32 0.06 0 0.34 0.06 0 
0.36 0.06 0 0.38 0.06 0 0.4 0.06 0 
0.42 0.06 0 0.44 0.06 0 0.46 0.06 0 
0.48 0.06 0 0.5 0.06 0 0.52 0.06 0 
0.54 0.06 0 0.56 0.06 0 0.58 0.06 0 
0.6 0.06 0 0.62 0.06 0 0.64 0.06 0 
0.66 0.06 0 0.68 0.06 0 0.7 0.06 0 
0.72 0.06 0 0.74 0.06 0 0.76 0.06 0 
0.78 0.06 0 0.8 0.06 0 0.82 0.06 0 
0.84 0.06 0 0.86 0.06 0 0.88 0.06 0 
0.9 0.06 0 0.92 0.06 0 0.94 0.06 0 
0.96 0.06 0 0.98 0.06 0 1 0.06 0 
0 0.08 0 0.02 0.08 0 0.04 0.08 0 
0.06 0.08 0 0.08 0.08 0 0.1 0.08 0 
0.12 0.08 0 0.14 0.08 0 0.16 0.08 0 
0.18 0.08 0 0.2 0.08 0 0.22 0.08 0 
0.24 0.08 0 0.26 0.08 0 0.28 0.08 0 
0.3 0.08 0 0.32 0.08 0 0.34 0.08 0 
0.36 0.08 0 0.38 0.08 0 0.4 0.08 0 
0.42 0.08 0 0.44 0.08 0 0.46 0.08 0 
0.48 0.08 0 0.5 0.08 0 0.52 0.08 0 
0.54 0.08 0 0.56 0.08 0 0.58 0.08 0 
0.6 0.08 0 0.62 0.08 0 0.64 0.08 0 
0.66 0.08 0 0.68 0.08 0 0.7 0.08 0 
0.72 0.08 0 0.74 0.08 0 0.76 0.08 0 
0.78 0.08 0 0.8 0.08 0 0.82 0.08 0 
0.84 0.08 0 0.86 0.08 0 0.88 0.08 0 
0.9 0.08 0 0.92 0.08 0 0.94 0.08 0 
0.96 0.08 0 0.98 0.08 0 1 0.08 0 
0 0.1 0 0.02 0.1 0 0.04 0.1 0 
0.06 0.1 0 0.08 0.1 0 0.1 0.1 0 
0.12 0.1 0 0.14 0.1 0 0.16 0.1 0 
0.18 0.1 0 0.2 0.1 0 0.22 0.1 0 
0.24 0.1 0 0.26 0.1 0 0.28 0.1 0 
0.3 0.1 0 0.32 0.1 0 0.34 0.1 0 
0.36 0.1 0 0.38 0.1 0 0.4 0.1 0 
0.42 0.1 0 0.44 0.1 0 0.46 0.1 0 
0.48 0.1 0 0.5 0.1 0 0.52 0.1 0 
0.54 0.1 0 0.56 0.1 0 0.58 0.1 0 
0.6 0.1 0 0.62 0.1 0 0.64 0.1 0 
0.66 0.1 0 0.68 0.1 0 0.7 0.1 0 
0.72 0.1 0 0.74 0.1 0 0.76 0.1 0 
0.78 0.1 0 0.8 0.1 0 0.82 0.1 0 
0.84 0.1 0 0.86 0.1 0 0.88 0.1 0 
0.9 0.1 0 0.92 0.1 0 0.94 0.1 0 
0.96 0.1 0 0.98 0.1 0 1 0.1 0 
0 0.12 0 0.02 0.12 0 0.04 0.12 0 
0.06 0.12 0 0.08 0.12 0 0.1 0.12 0 
0.12 0.12 0 0.14 0.12 0 0.16 0.12 0 
0.18 0.12 0 0.2 0.12 0 0.22 0.12 0 
0.24 0.12 0 0.26 0.12 0 0.28 0.12 0 
0.3 0.12 0 0.32 0.12 0 0.34 0.12 0 
0.36 0.12 0 0.38 0.12 0 0.4 0.12 0 
0.42 0.12 0 0.44 0.12 0 0.46 0.12 0 
0.48 0.12 0 0.5 0.12 0 0.52 0.12 0 
0.54 0.12 0 0.56 0.12 0 0.58 0.12 0 
0.6 0.12 0 0.62 0.12 0 0.64 0.12 0 
0.66 0.12 0 0.68 0.12 0 0.7 0.12 0 
0.72 0.12 0 0.74 0.12 0 0.76 0.12 0 
0.78 0.12 0 0.8 0.12 0 0.82 0.12 0 
0.84 0.12 0 0.86 0.12 0 0.88 0.12 0 
0.9 0.12 0 0.92 0.12 0 0.94 0.12 0 
0.96 0.12 0 0.98 0.12 0 1 0.12 0 
0 0.14 0 0.02 0.14 0 0.04 0.14 0 
0.06 0.14 0 0.08 0.14 0 0.1 0.14 0 
0.12 0.14 0 0.14 0.14 0 0.16 0.14 0 
0.18 0.14 0 0.2 0.14 0 0.22 0.14 0 
0.24 0.14 0 0.26 0.14 0 0.28 0.14 0 
0.3 0.14 0 0.32 0.14 0 0.34 0.14 0 
0.36 0.14 0 0.38 0.14 0 0.4 0.14 0 
0.42 0.14 0 0.44 0.14 0 0.46 0.14 0 
0.48 0.14 0 0.5 0.14 0 0.52 0.14 0 
0.54 0.14 0 0.56 0.14 0 0.58 0.14 0 
0.6 0.14 0 0.62 0.14 0 0.64 0.14 0 
0.66 0.14 0 0.68 0.14 0 0.7 0.14 0 
0.72 0.14 0 0.74 0.14 0 0.76 0.14 0 
0.78 0.14 0 0.8 0.14 0 0.82 0.14 0 
0.84 0.14 0 0.86 0.14 0 0.88 0.14 0 
0.9 0.14 0 0.92 0.14 0 0.94 0.14 0 
0.96 0.14 0 0.98 0.14 0 1 0.14 0 
0 0.16 0 0.02 0.16 0 0.04 0.16 0 
0.06 0.16 0 0.08 0.16 0 0.1 0.16 0 
0.12 0.16 0 0.14 0.16 0 0.16 0.16 0 
0.18 0.16 0 0.2 0.16 0 0.22 0.16 0 
0.24 0.16 0 0.26 0.16 0 0.28 0.16 0 
0.3 0.16 0 0.32 0.16 0 0.34 0.16 0 
0.36 0.16 0 0.38 0.16 0 0.4 0.16 0 
0.42 0.16 0 0.44 0.16 0 0.46 0.16 0 
0.48 0.16 0 0.5 0.16 0 0.52 0.16 0 
0.54 0.16 0 0.56 0.16 0 0.58 0.16 0 
0.6 0.16 0 0.62 0.16 0 0.64 0.16 0 
0.66 0.16 0 0.68 0.16 0 0.7 0.16 0 
0.72 0.16 0 0.74 0.16 0 0.76 0.16 0 
0.78 0.16 0 0.8 0.16 0 0.82 0.16 0 
0.84 0.16 0 0.86 0.16 0 0.88 0.16 0 
0.9 0.16 0 0.92 0.16 0 0.94 0.16 0 
0.96 0.16 0 0.98 0.16 0 1 0.16 0 
0 0.18 0 0.02 0.18 0 0.04 0.18 0 
0.06 0.18 0 0.08 0.18 0 0.1 0.18 0 
0.12 0.18 0 0.14 0.18 0 0.16 0.18 0 
0.18 0.18 0 0.2 0.18 0 0.22 0.18 0 
0.24 0.18 0 0.26 0.18 0 0.28 0.18 0 
0.3 0.18 0 0.32 0.18 0 0.34 0.18 0 
0.36 0.18 0 0.38 0.18 0 0.4 0.18 0 
0.42 0.18 0 0.44 0.18 0 0.46 0.18 0 
0.48 0.18 0 0.5 0.18 0 0.52 0.18 0 
0.54 0.18 0 0.56 0.18 0 0.58 0.18 0 
0.6 0.18 0 0.62 0.18 0 0.64 0.18 0 
0.66 0.18 0 0.68 0.18 0 0.7 0.18 0 
0.72 0.18 0 0.74 0.18 0 0.76 0.18 0 
0.78 0.18 0 0.8 0.18 0 0.82 0.18 0 
0.84 0.18 0 0.86 0.18 0 0.88 0.18 0 
0.9 0.18 0 0.92 0.18 0 0.94 0.18 0 
0.96 0.18 0 0.98 0.18 0 1 0.18 0 
0 0.2 0 0.02 0.2 0 0.04 0.2 0 
0.06 0.2 0 0.08 0.2 0 0.1 0.2 0 
0.12 0.2 0 0.14 0.2 0 0.16 0.2 0 
0.18 0.2 0 0.2 0.2 0 0.22 0.2 0 
0.24 0.2 0 0.26 0.2 0 0.28 0.2 0 
0.3 0.2 0 0.32 0.2 0 0.34 0.2 0 
0.36 0.2 0 0.38 0.2 0 0.4 0.2 0 
0.42 0.2 0 0.44 0.2 0 0.46 0.2 0 
0.48 0.2 0 0.5 0.2 0 0.52 0.2 0 
0.54 0.2 0 0.56 0.2 0 0.58 0.2 0 
0.6 0.2 0 0.62 0.2 0 0.64 0.2 0 
0.66 0.2 0 0.68 0.2 0 0.7 0.2 0 
0.72 0.2 0 0.74 0.2 0 0.76 0.2 0 
0.78 0.2 0 0.8 0.2 0 0.82 0.2 0 
0.84 0.2 0 0.86 0.2 0 0.88 0.2 0 
0.9 0.2 0 0.92 0.2 0 0.94 0.2 0 
0.96 0.2 0 0.98 0.2 0 1 0.2 0 
0 0.22 0 0.02 0.22 0 0.04 0.22 0 
0.06 0.22 0 0.08 0.22 0 0.1 0.22 0 
0.12 0.22 0 0.14 0.22 0 0.16 0.22 0 
0.18 0.22 0 0.2 0.22 0 0.22 0.22 0 
0.24 0.22 0 0.26 0.22 0 0.28 0.22 0 
0.3 0.22 0 0.32 0.22 0 0.34 0.22 0 
0.36 0.22 0 0.38 0.22 0 0.4 0.22 0 
0.42 0.22 0 0.44 0.22 0 0.46 0.22 0 
0.48 0.22 0 0.5 0.22 0 0.52 0.22 0 
0.54 0.22 0 0.56 0.22 0 0.58 0.22 0 
0.6 0.22 0 0.62 0.22 0 0.64 0.22 0 
0.66 0.22 0 0.68 0.22 0 0.7 0.22 0 
0.72 0.22 0 0.74 0.22 0 0.76 0.22 0 
0.78 0.22 0 0.8 0.22 0 0.82 0.22 0 
0.84 0.22 0 0.86 0.22 0 0.88 0.22 0 
0.9 0.22 0 0.92 0.22 0 0.94 0.22 0 
0.96 0.22 0 0.98 0.22 0 1 0.22 0 
0 0.24 0 0.02 0.24 0 0.04 0.24 0 
0.06 0.24 0 0.08 0.24 0 0.1 0.24 0 
0.12 0.24 0 0.14 0.24 0 0.16 0.24 0 
0.18 0.24 0 0.2 0.24 0 0.22 0.24 0 
0.24 0.24 0 0.26 0.24 0 0.28 0.24 0 
0.3 0.24 0 0.32 0.24 0 0.34 0.24 0 
0.36 0.24 0 0.38 0.24 0 0.4 0.24 0 
0.42 0.24 0 0.44 0.24 0 0.46 0.24 0 
0.48 0.24 0 0.5 0.24 0 0.52 0.24 0 
0.54 0.24 0 0.56 0.24 0 0.58 0.24 0 
0.6 0.24 0 0.62 0.24 0 0.64 0.24 0 
0.66 0.24 0 0.68 0.24 0 0.7 0.24 0 
0.72 0.24 0 0.74 0.24 0 0.76 0.24 0 
0.78 0.24 0 0.8 0.24 0 0.82 0.24 0 
0.84 0.24 0 0.86 0.24 0 0.88 0.24 0 
0.9 0.24 0 0.92 0.24 0 0.94 0.24 0 
0.96 0.24 0 0.98 0.24 0 1 0.24 0 
0 0.26 0 0.02 0.26 0 0.04 0.26 0 
0.06 0.26 0 0.08 0.26 0 0.1 0.26 0 
0.12 0.26 0 0.14 0.26 0 0.16 0.26 0 
0.18 0.26 0 0.2 0.26 0 0.22 0.26 0 
0.24 0.26 0 0.26 0.26 0 0.28 0.26 0 
0.3 0.26 0 0.32 0.26 0 0.34 0.26 0 
0.36 0.26 0 0.38 0.26 0 0.4 0.26 0 
0.42 0.26 0 0.44 0.26 0 0.46 0.26 0 
0.48 0.26 0 0.5 0.26 0 0.52 0.26 0 
0.54 0.26 0 0.56 0.26 0 0.58 0.26 0 
0.6 0.26 0 0.62 0.26 0 0.64 0.26 0 
0.66 0.26 0 0.68 0.26 0 0.7 0.26 0 
0.72 0.26 0 0.74 0.26 0 0.76 0.26 0 
0.78 0.26 0 0.8 0.26 0 0.82 0.26 0 
0.84 0.26 0 0.86 0.26 0 0.88 0.26 0 
0.9 0.26 0 0.92 0.26 0 0.94 0.26 0 
0.96 0.26 0 0.98 0.26 0 1 0.26 0 
0 0.28 0 0.02 0.28 0 0.04 0.28 0 
0.06 0.28 0 0.08 0.28 0 0.1 0.28 0 
0.12 0.28 0 0.14 0.28 0 0.16 0.28 0 
0.18 0.28 0 0.2 0.28 0 0.22 0.28 0 
0.24 0.28 0 0.26 0.28 0 0.28 0.28 0 
0.3 0.28 0 0.32 0.28 0 0.34 0.28 0 
0.36 0.28 0 0.38 0.28 0 0.4 0.28 0 
0.42 0.28 0 0.44 0.28 0 0.46 0.28 0 
0.48 0.28 0 0.5 0.28 0 0.52 0.28 0 
0.54 0.28 0 0.56 0.28 0 0.58 0.28 0 
0.6 0.28 0 0.62 0.28 0 0.64 0.28 0 
0.66 0.28 0 0.68 0.28 0 0.7 0.28 0 
0.72 0.28 0 0.74 0.28 0 0.76 0.28 0 
0.78 0.28 0 0.8 0.28 0 0.82 0.28 0 
0.84 0.28 0 0.86 0.28 0 0.88 0.28 0 
0.9 0.28 0 0.92 0.28 0 0.94 0.28 0 
0.96 0.28 0 0.98 0.28 0 1 0.28 0 
0 0.3 0 0.02 0.3 0 0.04 0.3 0 
0.06 0.3 0 0.08 0.3 0 0.1 0.3 0 
0.12 0.3 0 0.14 0.3 0 0.16 0.3 0 
0.18 0.3 0 0.2 0.3 0 0.22 0.3 0 
0.24 0.3 0 0.26 0.3 0 0.28 0.3 0 
0.3 0.3 0 0.32 0.3 0 0.34 0.3 0 
0.36 0.3 0 0.38 0.3 0 0.4 0.3 0 
0.42 0.3 0 0.44 0.3 0 0.46 0.3 0 
0.48 0.3 0 0.5 0.3 0 0.52 0.3 0 
0.54 0.3 0 0.56 0.3 0 0.58 0.3 0 
0.6 0.3 0 0.62 0.3 0 0.64 0.3 0 
0.66 0.3 0 0.68 0.3 0 0.7 0.3 0 
0.72 0.3 0 0.74 0.3 0 0.76 0.3 0 
0.78 0.3 0 0.8 0.3 0 0.82 0.3 0 
0.84 0.3 0 0.86 0.3 0 0.88 0.3 0 
0.9 0.3 0 0.92 0.3 0 0.94 0.3 0 
0.96 0.3 0 0.98 0.3 0 1 0.3 0 
0 0.32 0 0.02 0.32 0 0.04 0.32 0 
0.06 0.32 0 0.08 0.32 0 0.1 0.32 0 
0.12 0.32 0 0.14 0.32 0 0.16 0.32 0 
0.18 0.32 0 0.2 0.32 0 0.22 0.32 0 
0.24 0.32 0 0.26 0.32 0 0.28 0.32 0 
0.3 0.32 0 0.32 0.32 0 0.34 0.32 0 
0.36 0.32 0 0.38 0.32 0 0.4 0.32 0 
0.42 0.32 0 0.44 0.32 0 0.46 0.32 0 
0.48 0.32 0 0.5 0.32 0 0.52 0.32 0 
0.54 0.32 0 0.56 0.32 0 0.58 0.32 0 
[...]
CELL_DATA 2500
FIELD FieldData 2
pressure 1 2500 double
-0.0060939730902 -0.0060916959265 -0.0061099169207 -0.0061525236552 -0.0062187504101 -0.0063063263316 -0.0064127455932 -0.006536098638 -0.0066751019586 
-0.0068295873392 -0.0070007512524 -0.0071891181249 -0.0073955468998 -0.0076194558432 -0.0078581554133 -0.0081069388314 -0.0083587219 -0.0086040937042 
-0.0088314425993 -0.0090272328166 -0.0091764193015 -0.0092629972558 -0.0092706860151 -0.0091837912502 -0.0089881661124 -0.008672229281 -0.0082280833752 
-0.007652724236 -0.0069493920845 -0.0061291306026 -0.00521266224 -0.0042499695788 -0.0032776196246 -0.0023417076785 -0.0014944582424 -0.0007897473392 
-0.00027716712253 5.4146346856e-06 4.0056685728e-05 -0.0001637722028 -0.00054772328534 -0.0010428716245 -0.0015711084915 -0.0020571535611 -0.0024491631309 
-0.002732424747 -0.0029130879505 -0.0030048135876 -0.0030233398494 -0.0029914392837 -0.0060981183774 -0.0060928032908 -0.006110907104 -0.0061533587136 
-0.0062182573415 -0.0063023131385 -0.0064024436851 -0.0065168956172 -0.0066448270515 -0.0067869502642 -0.0069462366879 -0.0071232746863 -0.0073190722809 
-0.007533198532 -0.0077633215151 -0.0080051406531 -0.008252212166 -0.0084957955894 -0.0087248759988 -0.0089263257459 -0.0090852157295 -0.0091853789028 
-0.0092101758576 -0.009143418347 -0.0089703369428 -0.0086786743839 -0.0082597734789 -0.0077096199271 -0.007029725785 -0.0062278381057 -0.0053534823231 
-0.0044230461966 -0.003477967647 -0.0025656954296 -0.0017381524882 -0.0010483382661 -0.00054470243375 -0.00026379379899 -0.00022192915936 -0.00040725842146 
-0.00077487238352 -0.0012257849776 -0.0017061981408 -0.0021449527162 -0.0024921314285 -0.0027381014665 -0.0028931091838 -0.0029734401913 -0.0029935206813 
-0.0029607666275 -0.0060750254472 -0.00607000157 -0.0060916196103 -0.0061373722991 -0.0062026698941 -0.0062835386756 -0.0063767287396 -0.0064812708878 
-0.0065985705524 -0.006730809352 -0.0068810117878 -0.007051401413 -0.0072434362857 -0.0074571512741 -0.0076908489383 -0.0079408297578 -0.0082010432091 
-0.0084628983093 -0.00871522257 -0.0089443493895 -0.0091345351226 -0.0092686457829 -0.0093289942134 -0.0092983077275 -0.0091608179013 -0.0089033527195 
-0.0085163197657 -0.0079944564805 -0.0073367941488 -0.0065744389947 -0.0057264248668 -0.0048151732629 -0.0038820501926 -0.0029744702081 -0.002144302011 
-0.0014444630745 -0.0009235564096 -0.00061875374265 -0.00054752939384 -0.00069956998055 -0.0010312523782 -0.0014664911338 -0.0019163020576 -0.0023279108182 
-0.0026436171186 -0.0028496813058 -0.0029710509275 -0.0030279960141 -0.0030359455212 -0.0029952140448 -0.0060222445416 -0.0060242405626 -0.0060531722244 
-0.0061039683355 -0.0061697235929 -0.0062478775525 -0.0063348739219 -0.006432352231 -0.006543332223 -0.006671703172 -0.006821628737 -0.0069965922529 
-0.0071988677931 -0.0074292028772 -0.0076864084483 -0.0079668709342 -0.0082642001125 -0.0085690285268 -0.0088689392367 -0.009148771611 -0.0093912508667 
-0.0095777359213 -0.0096892006894 -0.0097073216196 -0.0096155889713 -0.0094003308785 -0.0090517088306 -0.0085646509937 -0.0079399380175 -0.0072139219081 
-0.0063863724761 -0.0054881554959 -0.0045585535456 -0.0036437030107 -0.0027945367613 -0.0020634394957 -0.0014992325685 -0.0011404702427 -0.001007561575 
-0.0010949871011 -0.0013660491141 -0.001754060554 -0.0021744564438 -0.0025579838593 -0.0028581191417 -0.0030372308796 -0.0031292205157 -0.0031622378147 
-0.0031564297665 -0.0031140729774 -0.0059420434663 -0.0059565918851 -0.0059948741154 -0.0060503128581 -0.0061180049801 -0.0061943539361 -0.0062793598818 
-0.0063763078145 -0.0064901201299 -0.0066264836812 -0.0067909528446 -0.006988069868 -0.0072209137737 -0.0074906087853 -0.0077957175256 -0.008131796019 
-0.0084910824409 -0.0088623391117 -0.0092310998619 -0.0095802371398 -0.0098906677787 -0.010142301041 -0.010315149929 -0.010390373455 -0.010351302151 
-0.010184443269 -0.0098804381343 -0.0094349684483 -0.008856121086 -0.0081594548121 -0.0073531783537 -0.0064662260948 -0.005535439843 -0.0046045993681 
-0.003722606587 -0.0029404892556 -0.0023068978929 -0.0018620426016 -0.0016304735597 -0.00161382433 -0.0017856592499 -0.002091570484 -0.0024576200979 
-0.0028073745654 -0.0030756501666 -0.0032545391818 -0.0033318343647 -0.0033524153813 -0.0033407497727 -0.0033048323271 -0.0058384730474 -0.0058687505242 
-0.0059166147354 -0.005977456725 -0.0060478500034 -0.006126882435 -0.0062173366968 -0.0063244139248 -0.006454894168 -0.006616034471 -0.0068144542578 
-0.0070554418592 -0.0073423083919 -0.0076756440868 -0.008052795302 -0.0084675093217 -0.0089097191975 -0.009365773779 -0.0098189493136 -0.010250124129 
-0.010638725604 -0.010963795208 -0.011204969654 -0.011343456335 -0.011363017114 -0.011250890739 -0.010998655418 -0.010602994835 -0.010074928491 
-0.0094114215672 -0.0086294124125 -0.0077546487026 -0.0068206568123 -0.005867837263 -0.004941989434 -0.0040918319853 -0.0033652229148 -0.0028039631207 
-0.0024374337581 -0.0022759533745 -0.0023055356198 -0.0024864068381 -0.0027575158833 -0.0030476985825 -0.0032921953185 -0.0034559430508 -0.0035432036497 
-0.003571401495 -0.0035669520824 -0.0035442343484 -0.0057182756169 -0.0057658518105 -0.0058231178289 -0.0058897020472 -0.0059662474922 -0.0060553453028 
-0.006161984651 -0.0062932536906 -0.0064574500735 -0.0066627996376 -0.0069165054832 -0.0072239156488 -0.0075875803229 -0.0080066053675 -0.0084762702113 
-0.0089877645175 -0.0095283959273 -0.010082069204 -0.010629940616 -0.011151374993 -0.01162493975 -0.012029320113 -0.012344241958 -0.012551416685 
-0.012635382145 -0.012584348378 -0.012391084129 -0.012053911698 -0.011576851396 -0.010953698622 -0.010200858733 -0.0093412995545 -0.008404771159 
-0.0074274574995 -0.0064510389922 -0.0055209298888 -0.0046833940697 -0.0039813557321 -0.003449051016 -0.0031061281435 -0.002952396111 -0.0029649255087 
-0.0030993316661 -0.0032966637498 -0.0034967954805 -0.0036576862637 -0.0037595262632 -0.0038036889748 -0.0038191440383 -0.0038143751845 -0.0055924833998 
-0.005657274664 -0.0057234072612 -0.005798341919 -0.0058874085479 -0.0059962289497 -0.0061319092175 -0.00630307453 -0.0065188723305 -0.0067879228145 
-0.0071173305497 -0.0075114989286 -0.0079713078824 -0.0084936570469 -0.0090711394792 -0.0096921867397 -0.010341533008 -0.011000863071 -0.011649755654 
-0.01226662865 -0.01282958456 -0.013317316252 -0.013709994825 -0.013990016532 -0.014142774653 -0.014157476701 -0.014027985696 -0.013753743992 
-0.013331255458 -0.012753611327 -0.012035087865 -0.011195375905 -0.010259899222 -0.0092598729994 -0.0082319664568 -0.0072173007086 -0.0062595047314 
-0.0054016601207 -0.004682148591 -0.0041296941827 -0.0037583554399 -0.0035636130705 -0.0035209806084 -0.0035885833668 -0.0037148354205 -0.0038509296685 
-0.0039626143728 -0.0040475357811 -0.0040935476502 -0.0041094358229 -0.005477635063 -0.0055580981385 -0.005634502309 -0.0057222607296 -0.0058315275057 
-0.005970694822 -0.0061486423072 -0.0063748716065 -0.0066588175281 -0.0070089124018 -0.0074312002683 -0.0079282904938 -0.0084987843212 -0.0091368240406 
-0.0098321370335 -0.010570471678 -0.011334240122 -0.012103418856 -0.012856462398 -0.013571119423 -0.014225328476 -0.014798080615 -0.015270075006 
-0.01562446476 -0.015847598221 -0.015929697443 -0.01586554343 -0.015655184604 -0.015289527112 -0.014761149956 -0.0140819591 -0.013268031357 
-0.012340068639 -0.011323805147 -0.010250153807 -0.0091549092072 -0.0080777984505 -0.0070606658953 -0.0061446349012 -0.0053663135538 -0.0047533970645 
-0.0043202772446 -0.0040645727526 -0.0039656743015 -0.0039866347985 -0.0040809412796 -0.0042050190242 -0.0043215055767 -0.0043977253266 -0.0044353262472 
-0.0053949326844 -0.0054902840804 -0.0055788315556 -0.0056845036517 -0.0058217661239 -0.0060013988147 -0.0062334052761 -0.0065276347167 -0.0068933869914 
-0.0073380437344 -0.0078658091914 -0.0084769988001 -0.0091674167343 -0.0099282366198 -0.01074639377 -0.011605187966 -0.012485122566 -0.01336479801 
-0.014221728994 -0.015033249288 -0.015777369814 -0.016433385461 -0.016982661789 -0.017409325752 -0.017700807256 -0.017848350594 -0.017847493366 
-0.017698540631 -0.017389439156 -0.016912398541 -0.016276947465 -0.015495523887 -0.014584033592 -0.013562429475 -0.012455248688 -0.011292000981 
-0.010107179317 -0.0089396585802 -0.0078312693498 -0.006824421057 -0.0059587263347 -0.0052667239249 -0.0047690278376 -0.0044694109339 -0.0043508555779 
-0.0043745560368 -0.004485246959 -0.0046225761267 -0.0047413352242 -0.0048039826147 -0.0053685677294 -0.0054774923511 -0.0055802993232 -0.0057086467491 
-0.0058807686392 -0.0061091305282 -0.0064043333289 -0.0067763209654 -0.0072335342926 -0.0077815949581 -0.0084224806966 -0.0091537275771 -0.0099680858287 
-0.010853836364 -0.011795311817 -0.012773649818 -0.013767680611 -0.014754740659 -0.01571161313 -0.016615390146 -0.01744409791 -0.018177575666 
-0.018798154994 -0.019291121358 -0.019645123348 -0.019852492629 -0.019909455026 -0.019816378558 -0.019560797629 -0.019135136189 -0.018546766537 
-0.017804737386 -0.016920284046 -0.015907517401 -0.01478428161 -0.01357306312 -0.012301814851 -0.011004534069 -0.0097213160955 -0.0084975710366 
-0.0073820390129 -0.0064232633155 -0.0056641874662 -0.0051346489354 -0.0048421468341 -0.0047629347896 -0.0048393028507 -0.004991846861 -0.0051456744541 
-0.0052328341365 -0.005421209402 -0.0055420480224 -0.005660712698 -0.0058155224082 -0.0060275175499 -0.0063102098718 -0.0066746701269 -0.007130364731 
-0.0076842254332 -0.0083398414777 -0.0090965393583 -0.0099487796412 -0.010886351413 -0.011894784287 -0.012955977528 -0.014049084641 -0.015151317939 
-0.016238906806 -0.017288006036 -0.018275375177 -0.019179394616 -0.019980768415 -0.020662988193 -0.021212716808 -0.021620042606 -0.021878478015 
-0.021984943816 -0.021939796929 -0.021732201737 -0.021355962148 -0.020816597893 -0.020120124877 -0.019273494954 -0.018285299593 -0.017166723206 
-0.015932777681 -0.01460381726 -0.013207170637 -0.011778595029 -0.010363174626 -0.0090150837317 -0.0077954513515 -0.0067673267175 -0.0059867041269 
-0.0054890985671 -0.0052732030782 -0.0052884087226 -0.0054408306272 -0.005622745417 -0.0057358925187 -0.005571326497 -0.0057017645644 -0.0058370978939 
-0.0060206196337 -0.0062751525504 -0.0066151050709 -0.0070515677606 -0.0075929203633 -0.0082444116752 -0.0090072710258 -0.0098778478739 -0.010847649112 
-0.011903622428 -0.013028627648 -0.014202290722 -0.015401799773 -0.016602846669 -0.017780609185 -0.018910518001 -0.019969408288 -0.020936309348 
-0.021792966118 -0.02252428928 -0.02311863152 -0.023567646197 -0.023866121619 -0.024011812493 -0.02400517745 -0.023838348738 -0.023507826858 
-0.023017566874 -0.022371095202 -0.021571780497 -0.020623335575 -0.019530706402 -0.018301481626 -0.016947840887 -0.015488969324 -0.013953768207 
-0.012383472362 -0.010833420079 -0.0093728674697 -0.0080812640902 -0.0070390885549 -0.0063116209128 -0.0059260265504 -0.0058479976471 -0.005975854795 
-0.0061710773204 -0.0063224549759 -0.0058307042979 -0.0059679902984 -0.0061197960079 -0.0063324719312 -0.0066301389324 -0.0070276636206 -0.0075355521408 
-0.0081609799747 -0.0089073074376 -0.0097730533326 -0.010751747619 -0.011832081186 -0.012998189863 -0.014230436426 -0.015506184367 -0.016800696095 
-0.018088196095 -0.019342730257 -0.020539446239 -0.021655517393 -0.022670770567 -0.023568271783 -0.024334703246 -0.024960156333 -0.025437960192 
-0.02576442195 -0.025938318089 -0.025960438251 -0.025826470974 -0.02553654306 -0.0250934295 -0.024498878513 -0.02375354978 -0.022857252885 
-0.021809648925 -0.020611539057 -0.01926690887 -0.017785860662 -0.016188365626 -0.014508472402 -0.012798190091 -0.011129721576 -0.0095939607079 
-0.0082924830051 -0.0073201623788 -0.0067372426238 -0.0065357750151 -0.0066197091373 -0.0068319340372 -0.0070124938855 -0.0062034841513 -0.006344577229 
-0.0065115509022 -0.0067524507699 -0.0070920265078 -0.0075449169943 -0.0081209037742 -0.008825865832 -0.0096609072026 -0.010622019562 -0.011700104097 
-0.012881045505 -0.01414637065 -0.015473981025 -0.016838977986 -0.018214795403 -0.019574132578 -0.02089035739 -0.022138583699 -0.023296453374 
-0.024344892873 -0.025268646214 -0.026056095033 -0.02669918577 -0.027193178166 -0.027536003885 -0.027727636653 -0.027769455522 -0.027660694994 
-0.027405294792 -0.027005313562 -0.026461463081 -0.025772764265 -0.024936464237 -0.023948315792 -0.022803485728 -0.021498441583 -0.020034055178 
-0.01842000936 -0.016680340327 -0.014859422931 -0.013026947828 -0.011279411469 -0.0097345704517 -0.008514698558 -0.0077155853632 -0.0073638528282 
-0.0073805362032 -0.0075937400114 -0.0078067913046 -0.0066862014522 -0.0068278169517 -0.0070079992062 -0.0072751514893 -0.0076537134424 -0.0081578110492 
-0.008796462479 -0.0095738764213 -0.010489071613 -0.011535774572 -0.012702271755 -0.013971875586 -0.015323597702 -0.016732869184 -0.01817269172 
-0.019614646932 -0.0210303683 -0.022392808949 -0.023677186601 -0.024861929705 -0.025929412619 -0.026865889053 -0.027661581076 -0.028310515045 
-0.028809845424 -0.029159153412 -0.029359748522 -0.029413753734 -0.029323527339 -0.029096133349 -0.028733384914 -0.028235771171 -0.027601865412 
-0.026827814484 -0.02590710118 -0.024830946507 -0.023589716223 -0.02217574865 -0.020587990412 -0.018838515158 -0.01696039545 -0.015015519933 
-0.013099664638 -0.011340605286 -0.0098838021979 -0.0088604593806 -0.0083374596166 -0.0082639986091 -0.0084631379865 -0.0087063290879 -0.0072685474558 
-0.0074075394141 -0.007598635704 -0.0078891170845 -0.00830251596 -0.0088523397611 -0.0095464602927 -0.010387515434 -0.011372761444 -0.012493692044 
-0.013736228716 -0.01508128854 -0.016505376185 -0.017981670585 -0.019481116521 -0.020973892072 -0.022430879594 -0.02382478242 -0.025131236229 
-0.026329810555 -0.027404113306 -0.028342084562 -0.029135996016 -0.029781800445 -0.030278428275 -0.030627114369 -0.030830391721 -0.030891092829 
-0.030814065392 -0.030608133493 -0.030275366304 -0.029816805056 -0.029231639057 -0.028516325285 -0.027663884702 -0.026663630245 -0.025501801908 
-0.024163760555 -0.022638364856 -0.020924915118 -0.019042493662 -0.017040517448 -0.015007744259 -0.013075004155 -0.011404970377 -0.010161542978 
-0.0094547810654 -0.0092716873819 -0.0094419451263 -0.0097096536418 -0.0079348917986 -0.0080685239469 -0.0082679340894 -0.0085781812263 -0.0090215705381 
-0.0096105684443 -0.010351862693 -0.011246849759 -0.012291075994 -0.013474043636 -0.014779570378 -0.016186220773 -0.017668242555 -0.019196710716 
-0.020740925994 -0.022270069347 -0.023754466822 -0.02516686576 -0.02648370421 -0.027685469962 -0.028757208265 -0.029688776941 -0.030474273816 
-0.031111387125 -0.03160076398 -0.031944932075 -0.03214728328 -0.032211338362 -0.032143529886 -0.031952939665 -0.031642316671 -0.031213815709 
-0.030668070521 -0.030003107159 -0.029213165542 -0.028287727609 -0.027211281852 -0.025964531432 -0.024527944759 -0.022888494822 -0.02104988881 
-0.019045479537 -0.016951249476 -0.014893840126 -0.01304587273 -0.011598923285 -0.010706273995 -0.010400188704 -0.010529685411 -0.01081997443 
-0.0086660352408 -0.0087919372017 -0.0089968728382 -0.0093230373921 -0.00979102323 -0.010412035762 -0.011191818159 -0.012130582505 -0.013222364894 
-0.014454989882 -0.015810256608 -0.017264635214 -0.018790386529 -0.02035684564 -0.021932188686 -0.023484817332 -0.024984781554 -0.02640528711 
-0.027723375949 -0.028920655108 -0.029983887428 -0.030904596109 -0.031678516535 -0.03230501635 -0.032785954119 -0.033124587659 -0.033324907725 
-0.033390859895 -0.033329486486 -0.033148906008 -0.032852775722 -0.032444678996 -0.031927266044 -0.031301009347 -0.030562691593 -0.029703872994 
-0.028709737805 -0.027559079387 -0.026226565396 -0.02468857623 -0.022933541565 -0.020976573197 -0.018876163829 -0.016747849199 -0.014766223374 
-0.013143611693 -0.012073636129 -0.011638051909 -0.011716207042 -0.012021353384 -0.0094407983223 -0.0095569282664 -0.0097645487067 -0.010102536792 
-0.010589428604 -0.011235227054 -0.012044746256 -0.013017129337 -0.014145211246 -0.015415260416 -0.016807300374 -0.018296079601 -0.019852198664 
-0.021443863733 -0.023038382179 -0.02460365644 -0.026109884759 -0.027530598479 -0.02884359336 -0.030031934522 -0.031083855721 -0.031992388339 
-0.032754884535 -0.033371861362 -0.033845746371 -0.034180185439 -0.034379267793 -0.034447016783 -0.034390246347 -0.034215343762 -0.03392688316 
-0.033529993874 -0.033029574666 -0.032429015039 -0.031728525447 -0.03092318767 -0.030001026146 -0.02894174764 -0.027717377098 -0.026296525938 
-0.024653945598 -0.022785995565 -0.020730438651 -0.018585672321 -0.01652020496 -0.014758829702 -0.013529932939 -0.012965558071 -0.012984490764 
-0.013297120743 -0.010237533041 -0.010342093564 -0.010549451704 -0.010894991712 -0.011395139513 -0.012058633055 -0.012889346561 -0.013885577214 
-0.015039080524 -0.016334773207 -0.01775133296 -0.019262097833 -0.020836656247 -0.022442421901 -0.024046109705 -0.025615542767 -0.027121041286 
-0.028536518953 -0.02984092059 -0.031018554369 -0.032058978563 -0.032956755447 -0.033710383628 -0.034320864768 -0.034790902576 -0.035123964139 
-0.035323693363 -0.035393844867 -0.035340583386 -0.035168054473 -0.034881665974 -0.034488038738 -0.033994304981 -0.033406873025 -0.03272974114 
-0.031962371674 -0.031097202709 -0.030117310251 -0.028995361187 -0.027695774011 -0.026182545938 -0.024434471888 -0.022467109035 -0.020357100821 
-0.01825939836 -0.01640229637 -0.015041198948 -0.014355966939 -0.014311323247 -0.014624663025 -0.011035438747 -0.011126610594 -0.011330556624 
-0.011679350895 -0.012187276261 -0.012861669216 -0.013705515135 -0.014716315424 -0.015884886268 -0.01719521342 -0.018624938333 -0.020146617037 
-0.021729276336 -0.023339799662 -0.024944726387 -0.026511903559 -0.028011730758 -0.029418935603 -0.030713455949 -0.031880667713 -0.032911515404 
-0.033801714422 -0.034550242401 -0.035158412142 -0.035628662619 -0.035963691723 -0.036166305151 -0.036239735241 -0.036189348769 -0.036016804654 
-0.035728244908 -0.035331642361 -0.034836148899 -0.034251004818 -0.033583954493 -0.032839061953 -0.032014020628 -0.031097105544 -0.030064549485 
-0.028880367419 -0.027501679826 -0.025892486772 -0.024046565557 -0.022015970426 -0.019935787376 -0.018028906378 -0.016568568445 -0.015777088442 
-0.015668506837 -0.015976893052 -0.011815872706 -0.011890810374 -0.012088155942 -0.012436005687 -0.012946521601 -0.01362549428 -0.014474925078 
-0.015491540522 -0.016665553857 -0.017980327313 -0.019413027375 -0.02093598382 -0.022517921997 -0.02412560643 -0.025725633806 -0.027285777664 
-0.028776950176 -0.030174637013 -0.031459540545 -0.032618184204 -0.033642609669 -0.034529015283 -0.035276787059 -0.035887073898 -0.036361514081 
-0.036701706211 -0.036909387149 -0.036986806041 -0.036938850104 -0.036764652094 -0.03647097861 -0.036066915645 -0.035563397779 -0.034972176679 
-0.034304289497 -0.033568158602 -0.032766953528 -0.031895086988 -0.030934519036 -0.029852404027 -0.028603326316 -0.027140443635 -0.025437931512 
-0.023522395499 -0.021504434095 -0.019593424054 -0.018070619305 -0.017193100747 -0.017024356067 -0.017323661645 -0.012563025755 -0.012617008643 
-0.012804429299 -0.013147413471 -0.013655815653 -0.01433353494 -0.015181490619 -0.016195780427 -0.017366303534 -0.018676256546 -0.020102949632 
-0.021618778933 -0.023192554849 -0.024791276742 -0.026381517694 -0.02793137239 -0.029412352841 -0.030800436569 -0.032077155072 -0.033229967623 
-0.034251334133 -0.035137884399 -0.035889024132 -0.036505284993 -0.036987255059 -0.037335324728 -0.037549737252 -0.037631493417 -0.037585608591 
-0.03740869301 -0.037107975598 -0.036693588311 -0.036177984588 -0.035574881462 -0.034898101835 -0.034159887676 -0.033368439421 -0.032524522142 
-0.031617112739 -0.0306192533 -0.029487163623 -0.028167807271 -0.026619383815 -0.024844146077 -0.022925576415 -0.021052840849 -0.019505564664 
-0.018566326715 -0.018345102817 -0.018632957231 -0.013255377419 -0.013300174297 -0.013465366766 -0.013798547869 -0.014300872915 -0.014971910581 