# vtk DataFile Version 4.1
vtk output
ASCII
DATASET STRUCTURED_GRID
DIMENSIONS 51 51 1
POINTS 2601 float
0 0 0 0.02 0 0 0.04 0 0 
0.06 0 0 0.08 0 0 0.1 0 0 
0.12 0 0 0.14 0 0 0.16 0 0 
0.18 0 0 0.2 0 0 0.22 0 0 
0.24 0 0 0.26 0 0 0.28 0 0 
0.3 0 0 0.32 0 0 0.34 0 0 
0.36 0 0 0.38 0 0 0.4 0 0 
0.42 0 0 0.44 0 0 0.46 0 0 
0.48 0 0 0.5 0 0 0.52 0 0 
0.54 0 0 0.56 0 0 0.58 0 0 
0.6 0 0 0.62 0 0 0.64 0 0 
0.66 0 0 0.68 0 0 0.7 0 0 
0.72 0 0 0.74 0 0 0.76 0 0 
0.78 0 0 0.8 0 0 0.82 0 0 
0.84 0 0 0.86 0 0 0.88 0 0 
0.9 0 0 0.92 0 0 0.94 0 0 
0.96 0 0 0.98 0 0 1 0 0 
0 0.02 0 0.02 0.02 0 0.04 0.02 0 
0.06 0.02 0 0.08 0.02 0 0.1 0.02 0 
0.12 0.02 0 0.14 0.02 0 0.16 0.02 0 
0.18 0.02 0 0.2 0.02 0 0.22 0.02 0 
0.24 0.02 0 0.26 0.02 0 0.28 0.02 0 
0.3 0.02 0 0.32 0.02 0 0.34 0.02 0 
0.36 0.02 0 0.38 0.02 0 0.4 0.02 0 
0.42 0.02 0 0.44 0.02 0 0.46 0.02 0 
0.48 0.02 0 0.5 0.02 0 0.52 0.02 0 
0.54 0.02 0 0.56 0.02 0 0.58 0.02 0 
0.6 0.02 0 0.62 0.02 0 0.64 0.02 0 
0.66 0.02 0 0.68 0.02 0 0.7 0.02 0 
0.72 0.02 0 0.74 0.02 0 0.76 0.02 0 
0.78 0.02 0 0.8 0.02 0 0.82 0.02 0 
0.84 0.02 0 0.86 0.02 0 0.88 0.02 0 
0.9 0.02 0 0.92 0.02 0 0.94 0.02 0 
0.96 0.02 0 0.98 0.02 0 1 0.02 0 
0 0.04 0 0.02 0.04 0 0.04 0.04 0 
0.06 0.04 0 0.08 0.04 0 0.1 0.04 0 
0.12 0.04 0 0.14 0.04 0 0.16 0.04 0 
0.18 0.04 0 0.2 0.04 0 0.22 0.04 0 
0.24 0.04 0 0.26 0.04 0 0.28 0.04 0 
0.3 0.04 0 0.32 0.04 0 0.34 0.04 0 
0.36 0.04 0 0.38 0.04 0 0.4 0.04 0 
0.42 0.04 0 0.44 0.04 0 0.46 0.04 0 
0.48 0.04 0 0.5 0.04 0 0.52 0.04 0 
0.54 0.04 0 0.56 0.04 0 0.58 0.04 0 
0.6 0.04 0 0.62 0.04 0 0.64 0.04 0 
0.66 0.04 0 0.68 0.04 0 0.7 0.04 0 
0.72 0.04 0 0.74 0.04 0 0.76 0.04 0 
0.78 0.04 0 0.8 0.04 0 0.82 0.04 0 
0.84 0.04 0 0.86 0.04 0 0.88 0.04 0 
0.9 0.04 0 0.92 0.04 0 0.94 0.04 0 
0.96 0.04 0 0.98 0.04 0 1 0.04 0 
0 0.06 0 0.02 0.06 0 0.04 0.06 0 
0.06 0.06 0 0.08 0.06 0 0.1 0.06 0 
0.12 0.06 0 0.14 0.06 0 0.16 0.06 0 
0.18 0.06 0 0.2 0.06 0 0.22 0.06 0 
0.24 0.06 0 0.26 0.06 0 0.28 0.06 0 
0.3 0.06 0 0.32 0.06 0 0.34 0.06 0 
0.36 0.06 0 0.38 0.06 0 0.4 0.06 0 
0.42 0.06 0 0.44 0.06 0 0.46 0.06 0 
0.48 0.06 0 0.5 0.06 0 0.52 0.06 0 
0.54 0.06 0 0.56 0.06 0 0.58 0.06 0 
0.6 0.06 0 0.62 0.06 0 0.64 0.06 0 
0.66 0.06 0 0.68 0.06 0 0.7 0.06 0 
0.72 0.06 0 0.74 0.06 0 0.76 0.06 0 
0.78 0.06 0 0.8 0.06 0 0.82 0.06 0 
0.84 0.06 0 0.86 0.06 0 0.88 0.06 0 
0.9 0.06 0 0.92 0.06 0 0.94 0.06 0 
0.96 0.06 0 0.98 0.06 0 1 0.06 0 
0 0.08 0 0.02 0.08 0 0.04 0.08 0 
0.06 0.08 0 0.08 0.08 0 0.1 0.08 0 
0.12 0.08 0 0.14 0.08 0 0.16 0.08 0 
0.18 0.08 0 0.2 0.08 0 0.22 0.08 0 
0.24 0.08 0 0.26 0.08 0 0.28 0.08 0 
0.3 0.08 0 0.32 0.08 0 0.34 0.08 0 
0.36 0.08 0 0.38 0.08 0 0.4 0.08 0 
0.42 0.08 0 0.44 0.08 0 0.46 0.08 0 
0.48 0.08 0 0.5 0.08 0 0.52 0.08 0 
0.54 0.08 0 0.56 0.08 0 0.58 0.08 0 
0.6 0.08 0 0.62 0.08 0 0.64 0.08 0 
0.66 0.08 0 0.68 0.08 0 0.7 0.08 0 
0.72 0.08 0 0.74 0.08 0 0.76 0.08 0 
0.78 0.08 0 0.8 0.08 0 0.82 0.08 0 
0.84 0.08 0 0.86 0.08 0 0.88 0.08 0 
0.9 0.08 0 0.92 0.08 0 0.94 0.08 0 
0.96 0.08 0 0.98 0.08 0 1 0.08 0 
0 0.1 0 0.02 0.1 0 0.04 0.1 0 
0.06 0.1 0 0.08 0.1 0 0.1 0.1 0 
0.12 0.1 0 0.14 0.1 0 0.16 0.1 0 
0.18 0.1 0 0.2 0.1 0 0.22 0.1 0 
0.24 0.1 0 0.26 0.1 0 0.28 0.1 0 
0.3 0.1 0 0.32 0.1 0 0.34 0.1 0 
0.36 0.1 0 0.38 0.1 0 0.4 0.1 0 
0.42 0.1 0 0.44 0.1 0 0.46 0.1 0 
0.48 0.1 0 0.5 0.1 0 0.52 0.1 0 
0.54 0.1 0 0.56 0.1 0 0.58 0.1 0 
0.6 0.1 0 0.62 0.1 0 0.64 0.1 0 
0.66 0.1 0 0.68 0.1 0 0.7 0.1 0 
0.72 0.1 0 0.74 0.1 0 0.76 0.1 0 
0.78 0.1 0 0.8 0.1 0 0.82 0.1 0 
0.84 0.1 0 0.86 0.1 0 0.88 0.1 0 
0.9 0.1 0 0.92 0.1 0 0.94 0.1 0 
0.96 0.1 0 0.98 0.1 0 1 0.1 0 
0 0.12 0 0.02 0.12 0 0.04 0.12 0 
0.06 0.12 0 0.08 0.12 0 0.1 0.12 0 
0.12 0.12 0 0.14 0.12 0 0.16 0.12 0 
0.18 0.12 0 0.2 0.12 0 0.22 0.12 0 
0.24 0.12 0 0.26 0.12 0 0.28 0.12 0 
0.3 0.12 0 0.32 0.12 0 0.34 0.12 0 
0.36 0.12 0 0.38 0.12 0 0.4 0.12 0 
0.42 0.12 0 0.44 0.12 0 0.46 0.12 0 
0.48 0.12 0 0.5 0.12 0 0.52 0.12 0 
0.54 0.12 0 0.56 0.12 0 0.58 0.12 0 
0.6 0.12 0 0.62 0.12 0 0.64 0.12 0 
0.66 0.12 0 0.68 0.12 0 0.7 0.12 0 
0.72 0.12 0 0.74 0.12 0 0.76 0.12 0 
0.78 0.12 0 0.8 0.12 0 0.82 0.12 0 
0.84 0.12 0 0.86 0.12 0 0.88 0.12 0 
0.9 0.12 0 0.92 0.12 0 0.94 0.12 0 
0.96 0.12 0 0.98 0.12 0 1 0.12 0 
0 0.14 0 0.02 0.14 0 0.04 0.14 0 
0.06 0.14 0 0.08 0.14 0 0.1 0.14 0 
0.12 0.14 0 0.14 0.14 0 0.16 0.14 0 
0.18 0.14 0 0.2 0.14 0 0.22 0.14 0 
0.24 0.14 0 0.26 0.14 0 0.28 0.14 0 
0.3 0.14 0 0.32 0.14 0 0.34 0.14 0 
0.36 0.14 0 0.38 0.14 0 0.4 0.14 0 
0.42 0.14 0 0.44 0.14 0 0.46 0.14 0 
0.48 0.14 0 0.5 0.14 0 0.52 0.14 0 
0.54 0.14 0 0.56 0.14 0 0.58 0.14 0 
0.6 0.14 0 0.62 0.14 0 0.64 0.14 0 
0.66 0.14 0 0.68 0.14 0 0.7 0.14 0 
0.72 0.14 0 0.74 0.14 0 0.76 0.14 0 
0.78 0.14 0 0.8 0.14 0 0.82 0.14 0 
0.84 0.14 0 0.86 0.14 0 0.88 0.14 0 
0.9 0.14 0 0.92 0.14 0 0.94 0.14 0 
0.96 0.14 0 0.98 0.14 0 1 0.14 0 
0 0.16 0 0.02 0.16 0 0.04 0.16 0 
0.06 0.16 0 0.08 0.16 0 0.1 0.16 0 
0.12 0.16 0 0.14 0.16 0 0.16 0.16 0 
0.18 0.16 0 0.2 0.16 0 0.22 0.16 0 
0.24 0.16 0 0.26 0.16 0 0.28 0.16 0 
0.3 0.16 0 0.32 0.16 0 0.34 0.16 0 
0.36 0.16 0 0.38 0.16 0 0.4 0.16 0 
0.42 0.16 0 0.44 0.16 0 0.46 0.16 0 
0.48 0.16 0 0.5 0.16 0 0.52 0.16 0 
0.54 0.16 0 0.56 0.16 0 0.58 0.16 0 
0.6 0.16 0 0.62 0.16 0 0.64 0.16 0 
0.66 0.16 0 0.68 0.16 0 0.7 0.16 0 
0.72 0.16 0 0.74 0.16 0 0.76 0.16 0 
0.78 0.16 0 0.8 0.16 0 0.82 0.16 0 
0.84 0.16 0 0.86 0.16 0 0.88 0.16 0 
0.9 0.16 0 0.92 0.16 0 0.94 0.16 0 
0.96 0.16 0 0.98 0.16 0 1 0.16 0 
0 0.18 0 0.02 0.18 0 0.04 0.18 0 
0.06 0.18 0 0.08 0.18 0 0.1 0.18 0 
0.12 0.18 0 0.14 0.18 0 0.16 0.18 0 
0.18 0.18 0 0.2 0.18 0 0.22 0.18 0 
0.24 0.18 0 0.26 0.18 0 0.28 0.18 0 
0.3 0.18 0 0.32 0.18 0 0.34 0.18 0 
0.36 0.18 0 0.38 0.18 0 0.4 0.18 0 
0.42 0.18 0 0.44 0.18 0 0.46 0.18 0 
0.48 0.18 0 0.5 0.18 0 0.52 0.18 0 
0.54 0.18 0 0.56 0.18 0 0.58 0.18 0 
0.6 0.18 0 0.62 0.18 0 0.64 0.18 0 
0.66 0.18 0 0.68 0.18 0 0.7 0.18 0 
0.72 0.18 0 0.74 0.18 0 0.76 0.18 0 
0.78 0.18 0 0.8 0.18 0 0.82 0.18 0 
0.84 0.18 0 0.86 0.18 0 0.88 0.18 0 
0.9 0.18 0 0.92 0.18 0 0.94 0.18 0 
0.96 0.18 0 0.98 0.18 0 1 0.18 0 
0 0.2 0 0.02 0.2 0 0.04 0.2 0 
0.06 0.2 0 0.08 0.2 0 0.1 0.2 0 
0.12 0.2 0 0.14 0.2 0 0.16 0.2 0 
0.18 0.2 0 0.2 0.2 0 0.22 0.2 0 
0.24 0.2 0 0.26 0.2 0 0.28 0.2 0 
0.3 0.2 0 0.32 0.2 0 0.34 0.2 0 
0.36 0.2 0 0.38 0.2 0 0.4 0.2 0 
0.42 0.2 0 0.44 0.2 0 0.46 0.2 0 
0.48 0.2 0 0.5 0.2 0 0.52 0.2 0 
0.54 0.2 0 0.56 0.2 0 0.58 0.2 0 
0.6 0.2 0 0.62 0.2 0 0.64 0.2 0 
0.66 0.2 0 0.68 0.2 0 0.7 0.2 0 
0.72 0.2 0 0.74 0.2 0 0.76 0.2 0 
0.78 0.2 0 0.8 0.2 0 0.82 0.2 0 
0.84 0.2 0 0.86 0.2 0 0.88 0.2 0 
0.9 0.2 0 0.92 0.2 0 0.94 0.2 0 
0.96 0.2 0 0.98 0.2 0 1 0.2 0 
0 0.22 0 0.02 0.22 0 0.04 0.22 0 
0.06 0.22 0 0.08 0.22 0 0.1 0.22 0 
0.12 0.22 0 0.14 0.22 0 0.16 0.22 0 
0.18 0.22 0 0.2 0.22 0 0.22 0.22 0 
0.24 0.22 0 0.26 0.22 0 0.28 0.22 0 
0.3 0.22 0 0.32 0.22 0 0.34 0.22 0 
0.36 0.22 0 0.38 0.22 0 0.4 0.22 0 
0.42 0.22 0 0.44 0.22 0 0.46 0.22 0 
0.48 0.22 0 0.5 0.22 0 0.52 0.22 0 
0.54 0.22 0 0.56 0.22 0 0.58 0.22 0 
0.6 0.22 0 0.62 0.22 0 0.64 0.22 0 
0.66 0.22 0 0.68 0.22 0 0.7 0.22 0 
0.72 0.22 0 0.74 0.22 0 0.76 0.22 0 
0.78 0.22 0 0.8 0.22 0 0.82 0.22 0 
0.84 0.22 0 0.86 0.22 0 0.88 0.22 0 
0.9 0.22 0 0.92 0.22 0 0.94 0.22 0 
0.96 0.22 0 0.98 0.22 0 1 0.22 0 
0 0.24 0 0.02 0.24 0 0.04 0.24 0 
0.06 0.24 0 0.08 0.24 0 0.1 0.24 0 
0.12 0.24 0 0.14 0.24 0 0.16 0.24 0 
0.18 0.24 0 0.2 0.24 0 0.22 0.24 0 
0.24 0.24 0 0.26 0.24 0 0.28 0.24 0 
0.3 0.24 0 0.32 0.24 0 0.34 0.24 0 
0.36 0.24 0 0.38 0.24 0 0.4 0.24 0 
0.42 0.24 0 0.44 0.24 0 0.46 0.24 0 
0.48 0.24 0 0.5 0.24 0 0.52 0.24 0 
0.54 0.24 0 0.56 0.24 0 0.58 0.24 0 
0.6 0.24 0 0.62 0.24 0 0.64 0.24 0 
0.66 0.24 0 0.68 0.24 0 0.7 0.24 0 
0.72 0.24 0 0.74 0.24 0 0.76 0.24 0 
0.78 0.24 0 0.8 0.24 0 0.82 0.24 0 
0.84 0.24 0 0.86 0.24 0 0.88 0.24 0 
0.9 0.24 0 0.92 0.24 0 0.94 0.24 0 
0.96 0.24 0 0.98 0.24 0 1 0.24 0 
0 0.26 0 0.02 0.26 0 0.04 0.26 0 
0.06 0.26 0 0.08 0.26 0 0.1 0.26 0 
0.12 0.26 0 0.14 0.26 0 0.16 0.26 0 
0.18 0.26 0 0.2 0.26 0 0.22 0.26 0 
0.24 0.26 0 0.26 0.26 0 0.28 0.26 0 
0.3 0.26 0 0.32 0.26 0 0.34 0.26 0 
0.36 0.26 0 0.38 0.26 0 0.4 0.26 0 
0.42 0.26 0 0.44 0.26 0 0.46 0.26 0 
0.48 0.26 0 0.5 0.26 0 0.52 0.26 0 
0.54 0.26 0 0.56 0.26 0 0.58 0.26 0 
0.6 0.26 0 0.62 0.26 0 0.64 0.26 0 
0.66 0.26 0 0.68 0.26 0 0.7 0.26 0 
0.72 0.26 0 0.74 0.26 0 0.76 0.26 0 
0.78 0.26 0 0.8 0.26 0 0.82 0.26 0 
0.84 0.26 0 0.86 0.26 0 0.88 0.26 0 
0.9 0.26 0 0.92 0.26 0 0.94 0.26 0 
0.96 0.26 0 0.98 0.26 0 1 0.26 0 
0 0.28 0 0.02 0.28 0 0.04 0.28 0 
0.06 0.28 0 0.08 0.28 0 0.1 0.28 0 
0.12 0.28 0 0.14 0.28 0 0.16 0.28 0 
0.18 0.28 0 0.2 0.28 0 0.22 0.28 0 
0.24 0.28 0 0.26 0.28 0 0.28 0.28 0 
0.3 0.28 0 0.32 0.28 0 0.34 0.28 0 
0.36 0.28 0 0.38 0.28 0 0.4 0.28 0 
0.42 0.28 0 0.44 0.28 0 0.46 0.28 0 
0.48 0.28 0 0.5 0.28 0 0.52 0.28 0 
0.54 0.28 0 0.56 0.28 0 0.58 0.28 0 
0.6 0.28 0 0.62 0.28 0 0.64 0.28 0 
0.66 0.28 0 0.68 0.28 0 0.7 0.28 0 
0.72 0.28 0 0.74 0.28 0 0.76 0.28 0 
0.78 0.28 0 0.8 0.28 0 0.82 0.28 0 
0.84 0.28 0 0.86 0.28 0 0.88 0.28 0 
0.9 0.28 0 0.92 0.28 0 0.94 0.28 0 
0.96 0.28 0 0.98 0.28 0 1 0.28 0 
0 0.3 0 0.02 0.3 0 0.04 0.3 0 
0.06 0.3 0 0.08 0.3 0 0.1 0.3 0 
0.12 0.3 0 0.14 0.3 0 0.16 0.3 0 
0.18 0.3 0 0.2 0.3 0 0.22 0.3 0 
0.24 0.3 0 0.26 0.3 0 0.28 0.3 0 
0.3 0.3 0 0.32 0.3 0 0.34 0.3 0 
0.36 0.3 0 0.38 0.3 0 0.4 0.3 0 
0.42 0.3 0 0.44 0.3 0 0.46 0.3 0 
0.48 0.3 0 0.5 0.3 0 0.52 0.3 0 
0.54 0.3 0 0.56 0.3 0 0.58 0.3 0 
0.6 0.3 0 0.62 0.3 0 0.64 0.3 0 
0.66 0.3 0 0.68 0.3 0 0.7 0.3 0 
0.72 0.3 0 0.74 0.3 0 0.76 0.3 0 
0.78 0.3 0 0.8 0.3 0 0.82 0.3 0 
0.84 0.3 0 0.86 0.3 0 0.88 0.3 0 
0.9 0.3 0 0.92 0.3 0 0.94 0.3 0 
0.96 0.3 0 0.98 0.3 0 1 0.3 0 
0 0.32 0 0.02 0.32 0 0.04 0.32 0 
0.06 0.32 0 0.08 0.32 0 0.1 0.32 0 
0.12 0.32 0 0.14 0.32 0 0.16 0.32 0 
0.18 0.32 0 0.2 0.32 0 0.22 0.32 0 
0.24 0.32 0 0.26 0.32 0 0.28 0.32 0 
0.3 0.32 0 0.32 0.32 0 0.34 0.32 0 
0.36 0.32 0 0.38 0.32 0 0.4 0.32 0 
0.42 0.32 0 0.44 0.32 0 0.46 0.32 0 
0.48 0.32 0 0.5 0.32 0 0.52 0.32 0 
0.54 0.32 0 0.56 0.32 0 0.58 0.32 0 
[...]
CELL_DATA 2500
FIELD FieldData 2
pressure 1 2500 double
-0.0066258536389 -0.0066320762117 -0.0066519160867 -0.0066825501143 -0.0067217647909 -0.0067687370442 -0.0068236459583 -0.0068870402161 -0.0069591039842 
-0.007039305027 -0.0071265016832 -0.0072191538552 -0.0073155600589 -0.0074139317659 -0.0075122715424 -0.0076080758536 -0.0076980130408 -0.0077777012275 
-0.0078415202718 -0.0078825577057 -0.0078927564148 -0.0078631609792 -0.0077842844698 -0.007646669922 -0.0074415826665 -0.0071617550263 -0.0068022581738 
-0.0063615246685 -0.0058424605098 -0.0052536854649 -0.0046148679615 -0.0039572132371 -0.0033065393251 -0.002694752207 -0.0021565480059 -0.0017257740495 
-0.0014308878251 -0.0012899239692 -0.0013057826484 -0.0014632485209 -0.0017205020919 -0.0020332994373 -0.0023555650382 -0.002648480191 -0.002887335348 
-0.003064848501 -0.0031822965186 -0.0032448568058 -0.0032599868167 -0.0032415930894 -0.0066211155105 -0.0066274377265 -0.0066455294537 -0.006673376109 
-0.0067097886858 -0.0067545033775 -0.0068076835177 -0.0068692631672 -0.0069387484102 -0.0070152071036 -0.007097443703 -0.0071842127049 -0.0072743136595 
-0.0073664784135 -0.0074590969556 -0.0075499595377 -0.007636033871 -0.0077131883033 -0.0077760624941 -0.007818091446 -0.007831523734 -0.0078076173264 
-0.0077370390613 -0.0076103403876 -0.0074185519929 -0.0071539790473 -0.006811120492 -0.006387606899 -0.0058851262526 -0.0053101083619 -0.0046956511697 
-0.0040580592465 -0.0034252921278 -0.0028292342232 -0.0023039672434 -0.0018825010798 -0.0015924217793 -0.0014509361142 -0.0014601423241 -0.0016037776383 
-0.0018472915288 -0.0021292527771 -0.0024230401159 -0.0026882719273 -0.0029030129164 -0.0030616133733 -0.0031670000677 -0.0032253161637 -0.0032427288823 
-0.0032237571223 -0.0066010328147 -0.0066098630464 -0.0066283286895 -0.0066552639061 -0.0066903651511 -0.0067338992907 -0.0067858281469 -0.0068457048971 
-0.0069127496351 -0.0069859977546 -0.0070645651684 -0.007147760782 -0.0072349733919 -0.0073254220666 -0.0074179398608 -0.0075107474064 -0.0076011170836 
-0.0076851824797 -0.0077578560051 -0.0078126637826 -0.0078417787744 -0.0078362699483 -0.0077863642467 -0.0076819157769 -0.0075131259488 -0.0072713673326 
-0.0069500722416 -0.0065456490949 -0.0060582298237 -0.0055017848934 -0.0049023556448 -0.0042746452915 -0.0036467950198 -0.0030508261944 -0.0025209371746 
-0.0020904343389 -0.0017875722165 -0.0016306685887 -0.0016231874853 -0.0017501243866 -0.0019772668847 -0.0022552670761 -0.0025311720366 -0.0027826143877 
-0.0029795493092 -0.0031194677809 -0.0032094647772 -0.0032576145054 -0.0032696728542 -0.0032449519573 -0.0065677719132 -0.0065816677391 -0.0066023721867 
-0.0066299055426 -0.0066649903671 -0.0067080805397 -0.0067591596252 -0.0068177944525 -0.0068833139558 -0.0069551751347 -0.0070331262442 -0.0071171251323 
-0.0072071418341 -0.0073029687101 -0.0074039790746 -0.0075087548991 -0.0076148691111 -0.0077186827121 -0.0078150333343 -0.0078971440305 -0.0079567157731 
-0.0079840104198 -0.0079682203349 -0.00789811259 -0.0077627496812 -0.0075523804739 -0.0072594454424 -0.0068794488882 -0.0064114897321 -0.0058775910607 
-0.0052890054293 -0.0046659538791 -0.0040352194871 -0.0034283252516 -0.0028794553041 -0.0024225054561 -0.0020871018967 -0.0018938166274 -0.0018492824058 
-0.0019422200196 -0.0021421709669 -0.0024028724507 -0.0026720674268 -0.0029122538834 -0.0031031254243 -0.0032287748592 -0.0033043705343 -0.0033410815918 
-0.0033463301903 -0.0033190509111 -0.0065257992783 -0.0065465781432 -0.0065708167695 -0.0066001534087 -0.0066360008278 -0.0066792534425 -0.0067302437561 
-0.0067888783377 -0.0068550956918 -0.0069291066026 -0.0070113959521 -0.0071026140363 -0.0072034158861 -0.0073142153812 -0.0074348041165 -0.0075641137409 
-0.0076999106536 -0.0078383577177 -0.0079738325639 -0.008098867624 -0.0082040929907 -0.008278510042 -0.0083100426036 -0.0082861641468 -0.0081947857417 
-0.0080253087024 -0.0077695739349 -0.0074227129312 -0.0069839154562 -0.0064728884552 -0.0058976144016 -0.0052777693441 -0.0046390000154 -0.0040119717451 
-0.0034305702709 -0.0029292100736 -0.0025391368364 -0.0022839486247 -0.0021748374401 -0.0022064544559 -0.0023549076861 -0.0025796986736 -0.0028309475747 
-0.0030614506369 -0.00324674439 -0.003370953705 -0.0034383525487 -0.0034677816782 -0.0034692848148 -0.00344402677 -0.0064811636144 -0.0065098610754 
-0.0065384756901 -0.0065701427394 -0.0066072911485 -0.0066515550391 -0.0067038552257 -0.0067648981992 -0.0068355122837 -0.0069167630302 -0.0070099566551 
-0.0071165406439 -0.0072378771873 -0.0073748814167 -0.0075277711505 -0.0076956779598 -0.0078761196442 -0.0080647408264 -0.0082551114382 -0.008438533081 
-0.0086042445482 -0.0087398383079 -0.0088318056778 -0.0088664111963 -0.0088306921713 -0.0087133782338 -0.0085058329833 -0.0082029951354 -0.0078042598228 
-0.0073220088257 -0.0067638287225 -0.006147578653 -0.0054973067849 -0.0048423792272 -0.0042159437796 -0.0036525805084 -0.0031850710289 -0.0028403954996 
-0.0026352842126 -0.0025720614715 -0.0026359189815 -0.0027950944794 -0.0030053022909 -0.0032187604278 -0.0033966557344 -0.0035233983139 -0.0035949576922 
-0.0036259774261 -0.0036298526718 -0.0036108784452 -0.0064412047804 -0.0064783414798 -0.006511439396 -0.0065456263438 -0.0065847303398 -0.0066313033028 
-0.0066872407789 -0.0067542550508 -0.0068341372145 -0.0069288966191 -0.0070407468386 -0.0071719541284 -0.0073245132232 -0.0074998816558 -0.0076985495669 
-0.0079194562085 -0.0081596452146 -0.0084139396947 -0.0086746107455 -0.0089315088703 -0.0091723587615 -0.0093831938592 -0.0095491990929 -0.00965560666 
-0.0096885376782 -0.0096359808024 -0.0094887595442 -0.0092414295483 -0.0088932828425 -0.0084478712515 -0.0079117364314 -0.0073008972946 -0.0066375175908 
-0.0059491840985 -0.0052676883484 -0.0046271595309 -0.0040614730746 -0.0036008899921 -0.0032681428289 -0.0030743944416 -0.0030159274863 -0.0030726517673 
-0.0032096653833 -0.0033829583428 -0.00354958307 -0.0036809093781 -0.0037624830672 -0.0038058858885 -0.0038196980584 -0.0038107364268 -0.006414478637 
-0.0064597522844 -0.0064970068742 -0.0065339477932 -0.0065759540626 -0.0066268225681 -0.0066895763232 -0.006766951084 -0.0068617649108 -0.0069770200333 
-0.0071158739729 -0.0072813988843 -0.007476274111 -0.0077023858322 -0.0079602011834 -0.0082483183616 -0.0085630362157 -0.0088978967649 -0.009243721148 
-0.009588779838 -0.0099191167047 -0.010219324074 -0.010473308077 -0.010665063541 -0.010779664462 -0.010804183993 -0.010728585174 -0.010546808228 
-0.010257887828 -0.0098570091139 -0.0093482972838 -0.0087460674359 -0.0080703408145 -0.0073463632541 -0.0066038190392 -0.005875562786 -0.0051957790723 
-0.0045974434868 -0.0041091130987 -0.0037512373037 -0.0035324903958 -0.003446876411 -0.0034726790389 -0.0035745007125 -0.0037097101102 -0.0038396979691 
-0.0039409921217 -0.0040027709022 -0.0040348194793 -0.0040392068016 -0.006409931205 -0.0064623927459 -0.006503449654 -0.0065435564251 -0.0065899230771 
-0.0066477134057 -0.0067210107051 -0.0068136065741 -0.006929355392 -0.0070723042574 -0.0072465926879 -0.007456120342 -0.0077042321648 -0.0079930465155 
-0.0083228894651 -0.0086917800013 -0.0090948404167 -0.0095242258193 -0.0099691495944 -0.010416097245 -0.010849510473 -0.011252419198 -0.011607159117 
-0.011896355322 -0.012103772775 -0.012215213432 -0.012219698664 -0.012110575067 -0.011886529173 -0.011536233618 -0.011060153113 -0.010470921267 
-0.0097861206958 -0.0090281180753 -0.0082237085181 -0.0074035055372 -0.0066009474134 -0.0058506904335 -0.0051862516478 -0.0046369197556 -0.0042240913038 
-0.0039574399776 -0.0038316640843 -0.0038248911657 -0.0039005620322 -0.0040149862764 -0.0041303411478 -0.0042225188253 -0.0042776335037 -0.0042980054732 
-0.0064363003921 -0.0064947812967 -0.0065393515292 -0.0065834276065 -0.0066361413557 -0.0067038340871 -0.0067916451897 -0.0069044016192 -0.0070470352783 
-0.0072247035125 -0.0074425001298 -0.007705271142 -0.0080168833335 -0.0083795654631 -0.0087933202273 -0.0092551775764 -0.0097590015945 -0.010295364211 
-0.010851618913 -0.011412500782 -0.011960616065 -0.012477092934 -0.012942551435 -0.013337906489 -0.013645306113 -0.013849411342 -0.013938471265 
-0.013905313893 -0.013748368242 -0.013452244452 -0.013013073079 -0.012441798633 -0.011753386475 -0.010966858455 -0.010105396933 -0.0091964212874 
-0.0082713927321 -0.0073651441156 -0.006514539153 -0.0057562868646 -0.0051237479023 -0.004642747953 -0.0043266770763 -0.0041716565802 -0.0041535096019 
-0.0042297497864 -0.0043501131902 -0.0044711799287 -0.0045543739931 -0.0045940134364 -0.0065017680417 -0.0065649701793 -0.0066130256725 -0.0066623441809 
-0.0067236222913 -0.0068043105839 -0.0069105488557 -0.0070481822989 -0.0072232956966 -0.0074420937056 -0.0077108728778 -0.0080352786288 -0.0084195809383 
-0.0088660113855 -0.00937385142 -0.0099390668268 -0.010554033266 -0.011207446718 -0.011884815427 -0.012568805173 -0.013239789026 -0.013876815812 
-0.014458403504 -0.014963535586 -0.015373055755 -0.015670736369 -0.015844280036 -0.015886361169 -0.015795207651 -0.015553612666 -0.015153853939 
-0.014605290866 -0.013920168272 -0.01311392116 -0.012205673243 -0.011218768218 -0.010181273031 -0.0091262950652 -0.0080918073277 -0.0071196444782 
-0.0062532462577 -0.0055337654305 -0.0049942968908 -0.0046523916001 -0.0045021595818 -0.0045093165635 -0.0046153115853 -0.0047535936137 -0.0048747814543 
-0.0049378287584 -0.0066133721534 -0.0066800573723 -0.0067319682918 -0.006787945398 -0.0068600539289 -0.0069567265268 -0.0070849749211 -0.0072517341192 
-0.0074641685709 -0.0077298349622 -0.0080560755357 -0.0084492414384 -0.0089139657634 -0.0094520984517 -0.010062103812 -0.010738647647 -0.011472308964 
-0.012249918915 -0.013054745698 -0.013866915976 -0.014664380816 -0.015423709818 -0.01612115195 -0.016734188333 -0.017242634662 -0.017629724454 
-0.017883203608 -0.017995788649 -0.017965409411 -0.017775078051 -0.01741485827 -0.01689264033 -0.016218183211 -0.015403481147 -0.014463320797 
-0.01341615616 -0.012285267603 -0.011099985156 -0.0098967257364 -0.0087194227953 -0.0076186844799 -0.0066488779354 -0.0058623120914 -0.0052999823663 
-0.0049794197401 -0.0048826418483 -0.0049518818018 -0.0051040915477 -0.0052564153964 -0.0053431763466 -0.0067765689155 -0.0068457694432 -0.0069019930243 
-0.0069660723319 -0.0070511748314 -0.0071664277545 -0.0073197589141 -0.007519122107 -0.0077730149696 -0.0080902296324 -0.0084790782844 -0.0089466218241 
-0.0094974962569 -0.010133023583 -0.010850668705 -0.011643489882 -0.012500268401 -0.013405534022 -0.014339785904 -0.015280447041 -0.016202638357 
-0.017080281514 -0.017887856364 -0.018601595004 -0.019200708588 -0.019668618441 -0.019993355795 -0.020167768953 -0.020189751335 -0.020043943011 
-0.0197206283 -0.019226707401 -0.018569966064 -0.01775920856 -0.016804855166 -0.015720005663 -0.014521981442 -0.013234339142 -0.011889162049 
-0.010529077745 -0.0092081658994 -0.0079906309144 -0.0069458719084 -0.0061385848782 -0.0056133752567 -0.0053758726419 -0.0053780336019 -0.0055235802241 
-0.0056996119857 -0.0058192692277 -0.0069949566495 -0.0070657607813 -0.0071267770818 -0.0072003186827 -0.0073001676513 -0.0074361116045 -0.0076169063699 
-0.0078516354963 -0.0081501103087 -0.0085222683953 -0.0089774088245 -0.0095229795896 -0.010163418265 -0.010899444423 -0.011727202853 -0.012638124636 
-0.013618794595 -0.014650850399 -0.015711917046 -0.016776306583 -0.017816093824 -0.018803116948 -0.019710299954 -0.020513053868 -0.021190745299 
-0.021727181643 -0.022110895859 -0.022335349711 -0.022398569261 -0.022287759123 -0.021996408245 -0.021530894911 -0.020897508744 -0.020102445166 
-0.019152158554 -0.018054298172 -0.016819493198 -0.015464013852 -0.014013128026 -0.012504659188 -0.010991885154 -0.0095444027791 -0.0082450278292 
-0.007180489194 -0.0064241683647 -0.0060113926222 -0.0059139323306 -0.006032533153 -0.0062295037056 -0.0063818893576 -0.0072698402505 -0.0073413726302 
-0.0074076025462 -0.0074915824476 -0.0076075108375 -0.0077656782519 -0.0079756010877 -0.0082475730193 -0.008592593607 -0.0090217317719 -0.0095450070243 
-0.010170020627 -0.010901035097 -0.011737823243 -0.012675190487 -0.013702655769 -0.014803928565 -0.015957769723 -0.017138531292 -0.0183171326 
-0.019463273758 -0.020546881838 -0.021539676105 -0.022416984209 -0.023158449616 -0.023748510772 -0.024176740646 -0.024437448837 -0.024529245482 
-0.024442792256 -0.024176887874 -0.023737743195 -0.023130926767 -0.022360843063 -0.021430685273 -0.020343193308 -0.01910238957 -0.017716474299 
-0.016201930493 -0.014588509332 -0.01292424925 -0.011278978121 -0.0097439108201 -0.0084242656666 -0.0074217814924 -0.006805756256 -0.0065773616403 
-0.0066463438556 -0.0068554730595 -0.0070408433865 -0.0076001097804 -0.0076715060951 -0.0077430783683 -0.0078381454179 -0.0079710166533 -0.0081522485796 
-0.008392240775 -0.0087023473992 -0.0090946531225 -0.009581176166 -0.010172399061 -0.010876130027 -0.01169612718 -0.012631214401 -0.013674713982 
-0.014813466896 -0.016028491617 -0.017295275343 -0.018584584594 -0.019864767147 -0.021103268903 -0.02226833948 -0.02333125021 -0.02426728236 
-0.025056522034 -0.025684533541 -0.026142150973 -0.026425046221 -0.026533102374 -0.026460725214 -0.026212802274 -0.025795933186 -0.025215657379 
-0.024475562337 -0.023576892137 -0.022518777874 -0.02129950939 -0.019919270906 -0.018384620206 -0.016714607468 -0.014947835737 -0.013148895605 
-0.011411440732 -0.0098540117229 -0.0086040562592 -0.0077666633063 -0.0073800078486 -0.0073746354747 -0.0075808274823 -0.0077989558251 -0.0079822534499 
-0.0080525501836 -0.0081293974478 -0.0082358281185 -0.0083858759215 -0.0085904498367 -0.0088606705379 -0.009208718705 -0.0096476816775 -0.010190235274 
-0.01084734353 -0.011626769252 -0.012531764997 -0.013560180148 -0.014703059274 -0.015944887507 -0.01726362022 -0.018631191355 -0.020015728239 
-0.02138310317 -0.022698656403 -0.02392979083 -0.025047271236 -0.026026390898 -0.026848148642 -0.02749940299 -0.027972629999 -0.028265392818 
-0.028379138529 -0.028312098659 -0.028074595162 -0.027673925103 -0.027116381813 -0.026406100957 -0.025544052885 -0.024527564892 -0.023350837871 
-0.022007071239 -0.020492799232 -0.018814688623 -0.016998406525 -0.015098093445 -0.013203461001 -0.011439922061 -0.0099558545801 -0.0088912220603 
-0.0083261733443 -0.0082231181586 -0.0084105769413 -0.0086570878874 -0.0084105047372 -0.0084787706966 -0.0085605710625 -0.0086781152962 -0.0088451444205 
-0.0090727372728 -0.0093723939753 -0.0097571049408 -0.010240639899 -0.010836264478 -0.011555281078 -0.012405371934 -0.013389324454 -0.014503287403 
-0.015736362738 -0.017070426342 -0.018480130941 -0.019934867406 -0.021400302165 -0.022839907172 -0.024217835615 -0.025500545734 -0.02665827021 
-0.027666807058 -0.028508191811 -0.029170764268 -0.029648994699 -0.029942409467 -0.030054127827 -0.029985919791 -0.029751515774 -0.029359380319 
-0.028817499755 -0.028131843818 -0.027304879057 -0.026334270254 -0.025212358611 -0.023927272204 -0.022466564248 -0.020824113659 -0.019010350895 
-0.01706455255 -0.015066202472 -0.013140337491 -0.011449691118 -0.010165512363 -0.0094119645226 -0.0091926989107 -0.0093473812262 -0.0096199293687 
-0.0088773346554 -0.0089426076346 -0.0090286650998 -0.0091567515822 -0.0093401044033 -0.0095895910878 -0.0099170673415 -0.010336019865 -0.010860706802 
-0.011504942516 -0.012280267658 -0.013194335599 -0.014248896171 -0.015438592543 -0.016750560202 -0.018163806051 -0.019650721923 -0.021178510448 
-0.022710342632 -0.024208327844 -0.025635388179 -0.026956889386 -0.028143130262 -0.029170551789 -0.030022237223 -0.030688280083 -0.031165004018 
-0.031453633351 -0.031558867759 -0.031485008756 -0.031247103743 -0.030855274673 -0.030319833707 -0.029649730749 -0.028850522487 -0.027922257692 
-0.026857909902 -0.025643152848 -0.024258769633 -0.022686961729 -0.020922142615 -0.018985521979 -0.016940717745 -0.014904950415 -0.013047471975 
-0.011564859667 -0.010624202054 -0.010276858497 -0.010386030539 -0.010677904856 -0.0093738050368 -0.0094350194283 -0.0095244577341 -0.0096621716231 
-0.0098605524502 -0.010130191877 -0.010483021444 -0.010932705639 -0.011494009063 -0.012181123976 -0.01300585748 -0.013975429462 -0.015090514694 
-0.016344474708 -0.017722170601 -0.019200766256 -0.020750942678 -0.022337589625 -0.023922550395 -0.025466617412 -0.026931180328 -0.028281347143 
-0.029487611783 -0.03052694857 -0.031383833826 -0.03204985547 -0.032522639307 -0.032804664176 -0.032901688076 -0.032819551616 -0.032572840906 
-0.032173493985 -0.031634691945 -0.030969062512 -0.030186312791 -0.029290591476 -0.028277879704 -0.027134387883 -0.025837350161 -0.024359803975 
-0.022680974953 -0.020802414752 -0.018767476025 -0.016678581669 -0.01470303383 -0.013054883278 -0.011939975735 -0.011460356377 -0.011513665039 
-0.011817028574 -0.0098899810443 -0.0099461534369 -0.010037904761 -0.010183864618 -0.010395517917 -0.010682945924 -0.011057795062 -0.011533903506 
-0.012126340673 -0.012849644529 -0.013715594245 -0.014730724875 -0.015894989441 -0.017200185283 -0.018629765341 -0.020159811042 -0.021759164482 
-0.023391583424 -0.025017766325 -0.026596783703 -0.028089587773 -0.029461078149 -0.030681854447 -0.031729897786 -0.032590763906 -0.033256873456 
-0.033726608814 -0.034002895479 -0.034092101621 -0.034000585316 -0.033741216755 -0.033327954265 -0.032776896802 -0.032104536377 -0.031325327227 
-0.030448591401 -0.029475249137 -0.028395030503 -0.027185224525 -0.025813265423 -0.024245694857 -0.022464685846 -0.020490574248 -0.018405084555 
-0.01636523516 -0.014593496457 -0.013327621447 -0.012719700877 -0.01271029238 -0.013017570493 -0.010415608865 -0.01046583476 -0.0105585477 
-0.010711036302 -0.010933741484 -0.011235945576 -0.011628910532 -0.012126484921 -0.012743917717 -0.013495838212 -0.014393619113 -0.015443407253 
-0.016644277317 -0.017987000671 -0.019454621753 -0.021022055387 -0.022657321428 -0.024323468878 -0.025979602668 -0.027584300331 -0.029098109857 
-0.030485734984 -0.03171840041 -0.03277484792 -0.033641082949 -0.034309898212 -0.03477952375 -0.035052621627 -0.035135526512 -0.035034598768 
-0.034760440194 -0.03432878756 -0.033758453751 -0.033069737599 -0.032281835958 -0.031409709367 -0.030460520613 -0.029429734277 -0.02829811167 
-0.02703172112 -0.025588241986 -0.023932537339 -0.022061202274 -0.020031113209 -0.017981554058 -0.016133906996 -0.014748926734 -0.014024697366 
-0.013950005241 -0.014254577659 -0.010940673304 -0.010983969212 -0.011076101021 -0.011233058536 -0.011464145484 -0.011777678146 -0.012184444266 
-0.012698110164 -0.01333383 -0.014105914505 -0.015025433708 -0.016098114578 -0.017322336129 -0.018688977384 -0.020180675473 -0.021771900797 
-0.023430554684 -0.025118565806 -0.026794601896 -0.028416954602 -0.029945824329 -0.031346261471 -0.032590056887 -0.033656070971 -0.03453049536 
-0.035205648026 -0.035678970881 -0.035952069833 -0.036030512825 -0.03592107306 -0.035631425665 -0.035178846348 -0.034584726286 -0.033872769789 
-0.033066545793 -0.032186609744 -0.03124665549 -0.030249171504 -0.029181128055 -0.028011283316 -0.026693067237 -0.025177845454 -0.023439933127 
-0.021509284944 -0.019501488945 -0.017627728873 -0.01616165153 -0.015340347866 -0.015202574709 -0.015499421039 -0.011455992941 -0.011490971279 
-0.011580774607 -0.011739880838 -0.01197636074 -0.012297522852 -0.012713553088 -0.013237598523 -0.013884346592 -0.014667661827 -0.015598295636 
-0.016681515831 -0.017916016821 -0.019292967394 -0.020794938758 -0.022396869483 -0.024066294772 -0.025764866133 -0.027451401364 -0.029083929061 
-0.030622905287 -0.032033863858 -0.033288449016 -0.034365640129 -0.035251007428 -0.035936027467 -0.03641668622 -0.036692801381 -0.036768656708 
-0.036651912638 -0.036347081816 -0.035873021652 -0.035253345941 -0.034514626917 -0.033684295191 -0.032787831758 -0.031845058854 -0.030865759078 
-0.02984458861 -0.028756357765 -0.027555190349 -0.026183945543 -0.024597976048 -0.022800501663 -0.020879524617 -0.019028096102 -0.017522309311 