# vtk DataFile Version 4.1
vtk output
ASCII
DATASET STRUCTURED_GRID
DIMENSIONS 51 51 1
POINTS 2601 float
0 0 0 0.02 0 0 0.04 0 0 
0.06 0 0 0.08 0 0 0.1 0 0 
0.12 0 0 0.14 0 0 0.16 0 0 
0.18 0 0 0.2 0 0 0.22 0 0 
0.24 0 0 0.26 0 0 0.28 0 0 
0.3 0 0 0.32 0 0 0.34 0 0 
0.36 0 0 0.38 0 0 0.4 0 0 
0.42 0 0 0.44 0 0 0.46 0 0 
0.48 0 0 0.5 0 0 0.52 0 0 
0.54 0 0 0.56 0 0 0.58 0 0 
0.6 0 0 0.62 0 0 0.64 0 0 
0.66 0 0 0.68 0 0 0.7 0 0 
0.72 0 0 0.74 0 0 0.76 0 0 
0.78 0 0 0.8 0 0 0.82 0 0 
0.84 0 0 0.86 0 0 0.88 0 0 
0.9 0 0 0.92 0 0 0.94 0 0 
0.96 0 0 0.98 0 0 1 0 0 
0 0.02 0 0.02 0.02 0 0.04 0.02 0 
0.06 0.02 0 0.08 0.02 0 0.1 0.02 0 
0.12 0.02 0 0.14 0.02 0 0.16 0.02 0 
0.18 0.02 0 0.2 0.02 0 0.22 0.02 0 
0.24 0.02 0 0.26 0.02 0 0.28 0.02 0 
0.3 0.02 0 0.32 0.02 0 0.34 0.02 0 
0.36 0.02 0 0.38 0.02 0 0.4 0.02 0 
0.42 0.02 0 0.44 0.02 0 0.46 0.02 0 
0.48 0.02 0 0.5 0.02 0 0.52 0.02 0 
0.54 0.02 0 0.56 0.02 0 0.58 0.02 0 
0.6 0.02 0 0.62 0.02 0 0.64 0.02 0 
0.66 0.02 0 0.68 0.02 0 0.7 0.02 0 
0.72 0.02 0 0.74 0.02 0 0.76 0.02 0 
0.78 0.02 0 0.8 0.02 0 0.82 0.02 0 
0.84 0.02 0 0.86 0.02 0 0.88 0.02 0 
0.9 0.02 0 0.92 0.02 0 0.94 0.02 0 
0.96 0.02 0 0.98 0.02 0 1 0.02 0 
0 0.04 0 0.02 0.04 0 0.04 0.04 0 
0.06 0.04 0 0.08 0.04 0 0.1 0.04 0 
0.12 0.04 0 0.14 0.04 0 0.16 0.04 0 
0.18 0.04 0 0.2 0.04 0 0.22 0.04 0 
0.24 0.04 0 0.26 0.04 0 0.28 0.04 0 
0.3 0.04 0 0.32 0.04 0 0.34 0.04 0 
0.36 0.04 0 0.38 0.04 0 0.4 0.04 0 
0.42 0.04 0 0.44 0.04 0 0.46 0.04 0 
0.48 0.04 0 0.5 0.04 0 0.52 0.04 0 
0.54 0.04 0 0.56 0.04 0 0.58 0.04 0 
0.6 0.04 0 0.62 0.04 0 0.64 0.04 0 
0.66 0.04 0 0.68 0.04 0 0.7 0.04 0 
0.72 0.04 0 0.74 0.04 0 0.76 0.04 0 
0.78 0.04 0 0.8 0.04 0 0.82 0.04 0 
0.84 0.04 0 0.86 0.04 0 0.88 0.04 0 
0.9 0.04 0 0.92 0.04 0 0.94 0.04 0 
0.96 0.04 0 0.98 0.04 0 1 0.04 0 
0 0.06 0 0.02 0.06 0 0.04 0.06 0 
0.06 0.06 0 0.08 0.06 0 0.1 0.06 0 
0.12 0.06 0 0.14 0.06 0 0.16 0.06 0 
0.18 0.06 0 0.2 0.06 0 0.22 0.06 0 
0.24 0.06 0 0.26 0.06 0 0.28 0.06 0 
0.3 0.06 0 0.32 0.06 0 0.34 0.06 0 
0.36 0.06 0 0.38 0.06 0 0.4 0.06 0 
0.42 0.06 0 0.44 0.06 0 0.46 0.06 0 
0.48 0.06 0 0.5 0.06 0 0.52 0.06 0 
0.54 0.06 0 0.56 0.06 0 0.58 0.06 0 
0.6 0.06 0 0.62 0.06 0 0.64 0.06 0 
0.66 0.06 0 0.68 0.06 0 0.7 0.06 0 
0.72 0.06 0 0.74 0.06 0 0.76 0.06 0 
0.78 0.06 0 0.8 0.06 0 0.82 0.06 0 
0.84 0.06 0 0.86 0.06 0 0.88 0.06 0 
0.9 0.06 0 0.92 0.06 0 0.94 0.06 0 
0.96 0.06 0 0.98 0.06 0 1 0.06 0 
0 0.08 0 0.02 0.08 0 0.04 0.08 0 
0.06 0.08 0 0.08 0.08 0 0.1 0.08 0 
0.12 0.08 0 0.14 0.08 0 0.16 0.08 0 
0.18 0.08 0 0.2 0.08 0 0.22 0.08 0 
0.24 0.08 0 0.26 0.08 0 0.28 0.08 0 
0.3 0.08 0 0.32 0.08 0 0.34 0.08 0 
0.36 0.08 0 0.38 0.08 0 0.4 0.08 0 
0.42 0.08 0 0.44 0.08 0 0.46 0.08 0 
0.48 0.08 0 0.5 0.08 0 0.52 0.08 0 
0.54 0.08 0 0.56 0.08 0 0.58 0.08 0 
0.6 0.08 0 0.62 0.08 0 0.64 0.08 0 
0.66 0.08 0 0.68 0.08 0 0.7 0.08 0 
0.72 0.08 0 0.74 0.08 0 0.76 0.08 0 
0.78 0.08 0 0.8 0.08 0 0.82 0.08 0 
0.84 0.08 0 0.86 0.08 0 0.88 0.08 0 
0.9 0.08 0 0.92 0.08 0 0.94 0.08 0 
0.96 0.08 0 0.98 0.08 0 1 0.08 0 
0 0.1 0 0.02 0.1 0 0.04 0.1 0 
0.06 0.1 0 0.08 0.1 0 0.1 0.1 0 
0.12 0.1 0 0.14 0.1 0 0.16 0.1 0 
0.18 0.1 0 0.2 0.1 0 0.22 0.1 0 
0.24 0.1 0 0.26 0.1 0 0.28 0.1 0 
0.3 0.1 0 0.32 0.1 0 0.34 0.1 0 
0.36 0.1 0 0.38 0.1 0 0.4 0.1 0 
0.42 0.1 0 0.44 0.1 0 0.46 0.1 0 
0.48 0.1 0 0.5 0.1 0 0.52 0.1 0 
0.54 0.1 0 0.56 0.1 0 0.58 0.1 0 
0.6 0.1 0 0.62 0.1 0 0.64 0.1 0 
0.66 0.1 0 0.68 0.1 0 0.7 0.1 0 
0.72 0.1 0 0.74 0.1 0 0.76 0.1 0 
0.78 0.1 0 0.8 0.1 0 0.82 0.1 0 
0.84 0.1 0 0.86 0.1 0 0.88 0.1 0 
0.9 0.1 0 0.92 0.1 0 0.94 0.1 0 
0.96 0.1 0 0.98 0.1 0 1 0.1 0 
0 0.12 0 0.02 0.12 0 0.04 0.12 0 
0.06 0.12 0 0.08 0.12 0 0.1 0.12 0 
0.12 0.12 0 0.14 0.12 0 0.16 0.12 0 
0.18 0.12 0 0.2 0.12 0 0.22 0.12 0 
0.24 0.12 0 0.26 0.12 0 0.28 0.12 0 
0.3 0.12 0 0.32 0.12 0 0.34 0.12 0 
0.36 0.12 0 0.38 0.12 0 0.4 0.12 0 
0.42 0.12 0 0.44 0.12 0 0.46 0.12 0 
0.48 0.12 0 0.5 0.12 0 0.52 0.12 0 
0.54 0.12 0 0.56 0.12 0 0.58 0.12 0 
0.6 0.12 0 0.62 0.12 0 0.64 0.12 0 
0.66 0.12 0 0.68 0.12 0 0.7 0.12 0 
0.72 0.12 0 0.74 0.12 0 0.76 0.12 0 
0.78 0.12 0 0.8 0.12 0 0.82 0.12 0 
0.84 0.12 0 0.86 0.12 0 0.88 0.12 0 
0.9 0.12 0 0.92 0.12 0 0.94 0.12 0 
0.96 0.12 0 0.98 0.12 0 1 0.12 0 
0 0.14 0 0.02 0.14 0 0.04 0.14 0 
0.06 0.14 0 0.08 0.14 0 0.1 0.14 0 
0.12 0.14 0 0.14 0.14 0 0.16 0.14 0 
0.18 0.14 0 0.2 0.14 0 0.22 0.14 0 
0.24 0.14 0 0.26 0.14 0 0.28 0.14 0 
0.3 0.14 0 0.32 0.14 0 0.34 0.14 0 
0.36 0.14 0 0.38 0.14 0 0.4 0.14 0 
0.42 0.14 0 0.44 0.14 0 0.46 0.14 0 
0.48 0.14 0 0.5 0.14 0 0.52 0.14 0 
0.54 0.14 0 0.56 0.14 0 0.58 0.14 0 
0.6 0.14 0 0.62 0.14 0 0.64 0.14 0 
0.66 0.14 0 0.68 0.14 0 0.7 0.14 0 
0.72 0.14 0 0.74 0.14 0 0.76 0.14 0 
0.78 0.14 0 0.8 0.14 0 0.82 0.14 0 
0.84 0.14 0 0.86 0.14 0 0.88 0.14 0 
0.9 0.14 0 0.92 0.14 0 0.94 0.14 0 
0.96 0.14 0 0.98 0.14 0 1 0.14 0 
0 0.16 0 0.02 0.16 0 0.04 0.16 0 
0.06 0.16 0 0.08 0.16 0 0.1 0.16 0 
0.12 0.16 0 0.14 0.16 0 0.16 0.16 0 
0.18 0.16 0 0.2 0.16 0 0.22 0.16 0 
0.24 0.16 0 0.26 0.16 0 0.28 0.16 0 
0.3 0.16 0 0.32 0.16 0 0.34 0.16 0 
0.36 0.16 0 0.38 0.16 0 0.4 0.16 0 
0.42 0.16 0 0.44 0.16 0 0.46 0.16 0 
0.48 0.16 0 0.5 0.16 0 0.52 0.16 0 
0.54 0.16 0 0.56 0.16 0 0.58 0.16 0 
0.6 0.16 0 0.62 0.16 0 0.64 0.16 0 
0.66 0.16 0 0.68 0.16 0 0.7 0.16 0 
0.72 0.16 0 0.74 0.16 0 0.76 0.16 0 
0.78 0.16 0 0.8 0.16 0 0.82 0.16 0 
0.84 0.16 0 0.86 0.16 0 0.88 0.16 0 
0.9 0.16 0 0.92 0.16 0 0.94 0.16 0 
0.96 0.16 0 0.98 0.16 0 1 0.16 0 
0 0.18 0 0.02 0.18 0 0.04 0.18 0 
0.06 0.18 0 0.08 0.18 0 0.1 0.18 0 
0.12 0.18 0 0.14 0.18 0 0.16 0.18 0 
0.18 0.18 0 0.2 0.18 0 0.22 0.18 0 
0.24 0.18 0 0.26 0.18 0 0.28 0.18 0 
0.3 0.18 0 0.32 0.18 0 0.34 0.18 0 
0.36 0.18 0 0.38 0.18 0 0.4 0.18 0 
0.42 0.18 0 0.44 0.18 0 0.46 0.18 0 
0.48 0.18 0 0.5 0.18 0 0.52 0.18 0 
0.54 0.18 0 0.56 0.18 0 0.58 0.18 0 
0.6 0.18 0 0.62 0.18 0 0.64 0.18 0 
0.66 0.18 0 0.68 0.18 0 0.7 0.18 0 
0.72 0.18 0 0.74 0.18 0 0.76 0.18 0 
0.78 0.18 0 0.8 0.18 0 0.82 0.18 0 
0.84 0.18 0 0.86 0.18 0 0.88 0.18 0 
0.9 0.18 0 0.92 0.18 0 0.94 0.18 0 
0.96 0.18 0 0.98 0.18 0 1 0.18 0 
0 0.2 0 0.02 0.2 0 0.04 0.2 0 
0.06 0.2 0 0.08 0.2 0 0.1 0.2 0 
0.12 0.2 0 0.14 0.2 0 0.16 0.2 0 
0.18 0.2 0 0.2 0.2 0 0.22 0.2 0 
0.24 0.2 0 0.26 0.2 0 0.28 0.2 0 
0.3 0.2 0 0.32 0.2 0 0.34 0.2 0 
0.36 0.2 0 0.38 0.2 0 0.4 0.2 0 
0.42 0.2 0 0.44 0.2 0 0.46 0.2 0 
0.48 0.2 0 0.5 0.2 0 0.52 0.2 0 
0.54 0.2 0 0.56 0.2 0 0.58 0.2 0 
0.6 0.2 0 0.62 0.2 0 0.64 0.2 0 
0.66 0.2 0 0.68 0.2 0 0.7 0.2 0 
0.72 0.2 0 0.74 0.2 0 0.76 0.2 0 
0.78 0.2 0 0.8 0.2 0 0.82 0.2 0 
0.84 0.2 0 0.86 0.2 0 0.88 0.2 0 
0.9 0.2 0 0.92 0.2 0 0.94 0.2 0 
0.96 0.2 0 0.98 0.2 0 1 0.2 0 
0 0.22 0 0.02 0.22 0 0.04 0.22 0 
0.06 0.22 0 0.08 0.22 0 0.1 0.22 0 
0.12 0.22 0 0.14 0.22 0 0.16 0.22 0 
0.18 0.22 0 0.2 0.22 0 0.22 0.22 0 
0.24 0.22 0 0.26 0.22 0 0.28 0.22 0 
0.3 0.22 0 0.32 0.22 0 0.34 0.22 0 
0.36 0.22 0 0.38 0.22 0 0.4 0.22 0 
0.42 0.22 0 0.44 0.22 0 0.46 0.22 0 
0.48 0.22 0 0.5 0.22 0 0.52 0.22 0 
0.54 0.22 0 0.56 0.22 0 0.58 0.22 0 
0.6 0.22 0 0.62 0.22 0 0.64 0.22 0 
0.66 0.22 0 0.68 0.22 0 0.7 0.22 0 
0.72 0.22 0 0.74 0.22 0 0.76 0.22 0 
0.78 0.22 0 0.8 0.22 0 0.82 0.22 0 
0.84 0.22 0 0.86 0.22 0 0.88 0.22 0 
0.9 0.22 0 0.92 0.22 0 0.94 0.22 0 
0.96 0.22 0 0.98 0.22 0 1 0.22 0 
0 0.24 0 0.02 0.24 0 0.04 0.24 0 
0.06 0.24 0 0.08 0.24 0 0.1 0.24 0 
0.12 0.24 0 0.14 0.24 0 0.16 0.24 0 
0.18 0.24 0 0.2 0.24 0 0.22 0.24 0 
0.24 0.24 0 0.26 0.24 0 0.28 0.24 0 
0.3 0.24 0 0.32 0.24 0 0.34 0.24 0 
0.36 0.24 0 0.38 0.24 0 0.4 0.24 0 
0.42 0.24 0 0.44 0.24 0 0.46 0.24 0 
0.48 0.24 0 0.5 0.24 0 0.52 0.24 0 
0.54 0.24 0 0.56 0.24 0 0.58 0.24 0 
0.6 0.24 0 0.62 0.24 0 0.64 0.24 0 
0.66 0.24 0 0.68 0.24 0 0.7 0.24 0 
0.72 0.24 0 0.74 0.24 0 0.76 0.24 0 
0.78 0.24 0 0.8 0.24 0 0.82 0.24 0 
0.84 0.24 0 0.86 0.24 0 0.88 0.24 0 
0.9 0.24 0 0.92 0.24 0 0.94 0.24 0 
0.96 0.24 0 0.98 0.24 0 1 0.24 0 
0 0.26 0 0.02 0.26 0 0.04 0.26 0 
0.06 0.26 0 0.08 0.26 0 0.1 0.26 0 
0.12 0.26 0 0.14 0.26 0 0.16 0.26 0 
0.18 0.26 0 0.2 0.26 0 0.22 0.26 0 
0.24 0.26 0 0.26 0.26 0 0.28 0.26 0 
0.3 0.26 0 0.32 0.26 0 0.34 0.26 0 
0.36 0.26 0 0.38 0.26 0 0.4 0.26 0 
0.42 0.26 0 0.44 0.26 0 0.46 0.26 0 
0.48 0.26 0 0.5 0.26 0 0.52 0.26 0 
0.54 0.26 0 0.56 0.26 0 0.58 0.26 0 
0.6 0.26 0 0.62 0.26 0 0.64 0.26 0 
0.66 0.26 0 0.68 0.26 0 0.7 0.26 0 
0.72 0.26 0 0.74 0.26 0 0.76 0.26 0 
0.78 0.26 0 0.8 0.26 0 0.82 0.26 0 
0.84 0.26 0 0.86 0.26 0 0.88 0.26 0 
0.9 0.26 0 0.92 0.26 0 0.94 0.26 0 
0.96 0.26 0 0.98 0.26 0 1 0.26 0 
0 0.28 0 0.02 0.28 0 0.04 0.28 0 
0.06 0.28 0 0.08 0.28 0 0.1 0.28 0 
0.12 0.28 0 0.14 0.28 0 0.16 0.28 0 
0.18 0.28 0 0.2 0.28 0 0.22 0.28 0 
0.24 0.28 0 0.26 0.28 0 0.28 0.28 0 
0.3 0.28 0 0.32 0.28 0 0.34 0.28 0 
0.36 0.28 0 0.38 0.28 0 0.4 0.28 0 
0.42 0.28 0 0.44 0.28 0 0.46 0.28 0 
0.48 0.28 0 0.5 0.28 0 0.52 0.28 0 
0.54 0.28 0 0.56 0.28 0 0.58 0.28 0 
0.6 0.28 0 0.62 0.28 0 0.64 0.28 0 
0.66 0.28 0 0.68 0.28 0 0.7 0.28 0 
0.72 0.28 0 0.74 0.28 0 0.76 0.28 0 
0.78 0.28 0 0.8 0.28 0 0.82 0.28 0 
0.84 0.28 0 0.86 0.28 0 0.88 0.28 0 
0.9 0.28 0 0.92 0.28 0 0.94 0.28 0 
0.96 0.28 0 0.98 0.28 0 1 0.28 0 
0 0.3 0 0.02 0.3 0 0.04 0.3 0 
0.06 0.3 0 0.08 0.3 0 0.1 0.3 0 
0.12 0.3 0 0.14 0.3 0 0.16 0.3 0 
0.18 0.3 0 0.2 0.3 0 0.22 0.3 0 
0.24 0.3 0 0.26 0.3 0 0.28 0.3 0 
0.3 0.3 0 0.32 0.3 0 0.34 0.3 0 
0.36 0.3 0 0.38 0.3 0 0.4 0.3 0 
0.42 0.3 0 0.44 0.3 0 0.46 0.3 0 
0.48 0.3 0 0.5 0.3 0 0.52 0.3 0 
0.54 0.3 0 0.56 0.3 0 0.58 0.3 0 
0.6 0.3 0 0.62 0.3 0 0.64 0.3 0 
0.66 0.3 0 0.68 0.3 0 0.7 0.3 0 
0.72 0.3 0 0.74 0.3 0 0.76 0.3 0 
0.78 0.3 0 0.8 0.3 0 0.82 0.3 0 
0.84 0.3 0 0.86 0.3 0 0.88 0.3 0 
0.9 0.3 0 0.92 0.3 0 0.94 0.3 0 
0.96 0.3 0 0.98 0.3 0 1 0.3 0 
0 0.32 0 0.02 0.32 0 0.04 0.32 0 
0.06 0.32 0 0.08 0.32 0 0.1 0.32 0 
0.12 0.32 0 0.14 0.32 0 0.16 0.32 0 
0.18 0.32 0 0.2 0.32 0 0.22 0.32 0 
0.24 0.32 0 0.26 0.32 0 0.28 0.32 0 
0.3 0.32 0 0.32 0.32 0 0.34 0.32 0 
0.36 0.32 0 0.38 0.32 0 0.4 0.32 0 
0.42 0.32 0 0.44 0.32 0 0.46 0.32 0 
0.48 0.32 0 0.5 0.32 0 0.52 0.32 0 
0.54 0.32 0 0.56 0.32 0 0.58 0.32 0 
[...]
CELL_DATA 2500
FIELD FieldData 2
pressure 1 2500 double
-0.0061094526116 -0.0061128735002 -0.0061144840012 -0.0061121639115 -0.0061050846671 -0.0060930263406 -0.0060759999486 -0.0060540682172 -0.006027275061 
-0.0059956289394 -0.005959106637 -0.0059176635811 -0.0058712435852 -0.005819785968 -0.0057632321099 -0.0057015310392 -0.0056346446576 -0.0055625533583 
-0.0054852615488 -0.0054028036182 -0.0053152501964 -0.0052227145528 -0.0051253591692 -0.0050234019184 -0.0049171215388 -0.0048068628099 -0.0046930413292 
-0.0045761471275 -0.0044567465324 -0.0043354835108 -0.0042131589472 -0.0040906317555 -0.0039687780473 -0.0038485511406 -0.0037309613259 -0.0036170575468 
-0.0035079074969 -0.0034045759863 -0.0033081018887 -0.003219474378 -0.0031396093814 -0.003069326405 -0.0030093245999 -0.0029601537353 -0.0029221710961 
-0.0028954674264 -0.0028797304187 -0.0028739867895 -0.0028761089953 -0.00288189893 -0.006106028316 -0.0061094763748 -0.0061099949604 -0.006106634591 
-0.0060988536394 -0.0060864121451 -0.0060692274975 -0.0060472761862 -0.0060205439753 -0.0059890054129 -0.0059526204204 -0.0059113371815 -0.0058650964243 
-0.0058138372633 -0.005757502112 -0.0056960415294 -0.0056294197354 -0.0055576194289 -0.0054806476238 -0.0053985412779 -0.0053113733946 -0.0052192595231 
-0.0051223634837 -0.0050209028448 -0.0049151549594 -0.0048054629657 -0.0046922404494 -0.0045759746785 -0.0044572275997 -0.0043366319027 -0.0042150367981 
-0.0040932370542 -0.0039721175268 -0.0038526304336 -0.0037357824507 -0.0036226177437 -0.00351419869 -0.0034115840273 -0.0033158051828 -0.0032278415579 
-0.0031485948459 -0.0030788620764 -0.0030193055227 -0.0029704145922 -0.0029324529721 -0.0029053806436 -0.0028887405484 -0.0028815100277 -0.0028819608771 
-0.0028877205758 -0.0061045067682 -0.0061091138583 -0.0061096131792 -0.0061058651623 -0.0060977026804 -0.0060850105163 -0.0060677168044 -0.0060457706553 
-0.0060191250077 -0.0059877286222 -0.0059515239545 -0.0059104473849 -0.0058644327123 -0.0058134143926 -0.0057573312307 -0.0056961315117 -0.00562977685 
-0.0055582478235 -0.0054815488779 -0.00539971417 -0.005312813896 -0.0052209594339 -0.0051243085816 -0.0050230725996 -0.0049175228279 -0.0048079963357 
-0.0046949011217 -0.0045787207084 -0.0044600183082 -0.0043394416093 -0.0042178184635 -0.0040959232343 -0.0039746584073 -0.0038549898318 -0.0037379370059 
-0.0036245580056 -0.0035159298698 -0.003413126042 -0.0033171914466 -0.003229115747 -0.0031498052526 -0.0030800531595 -0.0030205059793 -0.0029716228718 
-0.0029336239844 -0.0029064241047 -0.0028895576355 -0.0028821244843 -0.0028828391596 -0.0028903645016 -0.0061073772326 -0.006113136657 -0.0061139928597 
-0.0061102294555 -0.0061019493447 -0.006089168933 -0.0060718627175 -0.0060499834937 -0.0060234717829 -0.0059922607721 -0.0059562780747 -0.0059154488821 
-0.005869697658 -0.0058189507451 -0.0057631407468 -0.0057022090761 -0.0056361112029 -0.005564820764 -0.0054883350436 -0.0054066809665 -0.0053199194458 
-0.0052281504247 -0.0051315207046 -0.0050302304212 -0.0049245393603 -0.0048147736669 -0.0047013324916 -0.0045846939612 -0.0044654197398 -0.0043442057605 
-0.0042217826689 -0.0040989820319 -0.0039767222281 -0.0038559919705 -0.0037378387289 -0.003623352062 -0.0035136430491 -0.0034098197229 -0.0033129597191 
-0.0032240809636 -0.0031441107807 -0.0030738537034 -0.0030139561319 -0.0029648662034 -0.0029267866842 -0.0028996223283 -0.0028829327595 -0.0028759224494 
-0.0028775337379 -0.0028867568776 -0.0061159148186 -0.0061225304308 -0.0061237970467 -0.0061201900721 -0.0061119671581 -0.0060992378306 -0.0060820205992 
-0.0060602818457 -0.0060339605043 -0.0060029806048 -0.0059672597894 -0.0059267123979 -0.0058812523161 -0.0058307970119 -0.0057752689303 -0.0057146000274 
-0.0056487353938 -0.0055776379154 -0.0055012938808 -0.0054197164073 -0.0053329502556 -0.0052410802023 -0.0051442364695 -0.0050426018222 -0.0049364193299 
-0.0048260002193 -0.0047117316446 -0.0045940848081 -0.0044736225919 -0.0043510399303 -0.0042270646028 -0.004102556926 -0.0039784627755 -0.0038558070205 
-0.0037356805927 -0.0036192225518 -0.0035075968632 -0.0034019654385 -0.0033034575936 -0.0032131370877 -0.0031319680738 -0.0030607799134 -0.0030002294135 
-0.002950761311 -0.0029125659973 -0.0028855368213 -0.0028692364235 -0.0028628955916 -0.0028654905418 -0.0028759827156 -0.0061307258184 -0.0061379084578 
-0.0061395297326 -0.0061361409566 -0.0061280762233 -0.0061154985544 -0.0060984558364 -0.0060769268795 -0.0060508510878 -0.0060201480141 -0.0059847266203 
-0.0059444910318 -0.0058993454627 -0.0058491954455 -0.0057939515514 -0.0057335331976 -0.0056678717552 -0.0055969161617 -0.0055206351128 -0.0054390216567 
-0.005352101925 -0.0052599382866 -0.005162638416 -0.0050603624013 -0.0049533315386 -0.0048418374704 -0.0047262517248 -0.0046070347349 -0.0044847461896 
-0.0043600728234 -0.0042337813062 -0.0041067564663 -0.0039799820778 -0.003854532359 -0.0037315575302 -0.0036122637225 -0.0034978879296 -0.0033896668709 
-0.0032888021653 -0.0031964230137 -0.0031135470668 -0.0030410398833 -0.0029795744135 -0.0029295914744 -0.0028912601169 -0.0028644401511 -0.0028486528611 
-0.0028430760423 -0.0028465995948 -0.0028580253467 -0.0061520653321 -0.0061596109623 -0.0061615173072 -0.0061583605343 -0.0061505082238 -0.0061381491266 
-0.0061213470168 -0.0061000868852 -0.0060743085708 -0.0060439266333 -0.0060088420545 -0.0059689501848 -0.0059241432052 -0.0058743134634 -0.0058193582881 
-0.0057591809853 -0.0056936971504 -0.0056228350733 -0.0055465404903 -0.0054647849583 -0.005377566325 -0.0052849206158 -0.0051869263725 -0.005083715267 
-0.004975481796 -0.0048624930285 -0.0047450999701 -0.0046237487045 -0.0044989904247 -0.0043715080329 -0.0042421248928 -0.0041117577495 -0.0039814378612 
-0.003852301352 -0.003725574221 -0.0036025507675 -0.0034845633182 -0.00337294731 -0.0032690012567 -0.0031739420139 -0.0030888579272 -0.0030146621112 
-0.0029520474404 -0.0029014444824 -0.0028629825331 -0.0028364548353 -0.0028212915407 -0.002816552408 -0.0028209742694 -0.0028331673513 -0.0061800156846 
-0.0061878044033 -0.0061899450344 -0.006187020294 -0.0061794108524 -0.006167316307 -0.0061508061187 -0.0061298666975 -0.0061044352364 -0.0060744203917 
-0.0060397158911 -0.0060002060603 -0.0059557696668 -0.0059062862732 -0.0058516355099 -0.0057917043198 -0.0057263852786 -0.0056555822068 -0.0055792167541 
-0.0054972271855 -0.0054095825776 -0.0053162828745 -0.0052173729565 -0.0051129503292 -0.0050031754072 -0.0048882857422 -0.004768606689 -0.0046445640376 
-0.0045166988138 -0.0043856899763 -0.0042524297586 -0.0041178726611 -0.0039831071288 -0.0038493465664 -0.0037179130489 -0.0035902106162 -0.003467693625 
-0.0033518258807 -0.0032440314776 -0.0031456402687 -0.0030578321195 -0.0029815808327 -0.0029176017752 -0.0028663051907 -0.0028277561402 -0.0028016420279 
-0.0027872502691 -0.0027834668454 -0.0027888329242 -0.0028017633671 -0.0062145822974 -0.0062225549954 -0.0062249032081 -0.0062222120955 -0.0062148682327 
-0.006203074823 -0.0061869014107 -0.0061663322083 -0.0061412993219 -0.0061117051816 -0.0060774337336 -0.0060383563573 -0.0059943399931 -0.0059452461063 
-0.0058909382103 -0.005831278763 -0.0057661358326 -0.005695386651 -0.0056189164999 -0.0055366331337 -0.0054484631393 -0.0053543694744 -0.0052543546735 
-0.0051484737016 -0.0050368487164 -0.004919678527 -0.0047972552178 -0.00466998326 -0.0045383924092 -0.0044031424295 -0.0042652043358 -0.0041255776777 
-0.003985420484 -0.0038460400563 -0.0037088732658 -0.0035754622499 -0.0034474160027 -0.003326360582 -0.0032138793721 -0.0031114475804 -0.0030203635252 
-0.002941678864 -0.0028761352664 -0.002824109693 -0.0027855722 -0.0027600578269 -0.0027466548502 -0.0027440200391 -0.0027504600493 -0.0027641877541 
-0.0062557407795 -0.006263875836 -0.0062664245345 -0.0062639762347 -0.0062569218999 -0.0062454652226 -0.0062296742525 -0.0062095286283 -0.0061849546848 
-0.0061558461689 -0.0061220747999 -0.0060835010512 -0.0060399746484 -0.0059913413999 -0.0059374402262 -0.005878110034 -0.0058131902595 -0.0057425211559 
-0.0056659556945 -0.0055833551449 -0.0054946064361 -0.0053996226135 -0.0052983575643 -0.0051908189217 -0.0050770770274 -0.0049572846324 -0.0048316984739 
-0.0047006935689 -0.0045647807706 -0.0044245816664 -0.0042811496354 -0.0041355395848 -0.0039889908372 -0.0038429185127 -0.0036989010038 -0.0035586493532 
-0.003423963078 -0.0032966708298 -0.0031785595285 -0.0030712934709 -0.0029763255333 -0.0028948089436 -0.0028275168203 -0.0027747765581 -0.0027364249616 
-0.0027117879951 -0.0026996882016 -0.0026984891565 -0.0027062152926 -0.0027208565948 -0.0063034570578 -0.0063117533657 -0.0063145095271 -0.0063123220208 
-0.0063055860057 -0.0062945068946 -0.0062791503772 -0.0062594914016 -0.0062354490003 -0.0062069056713 -0.0061737230595 -0.0061357462226 -0.0060928096763 
-0.006044736068 -0.0059913419403 -0.0059324368679 -0.005867824691 -0.005797311668 -0.0057207036936 -0.0056378188944 -0.0055484904403 -0.0054525778141 
-0.0053499794088 -0.0052406400892 -0.0051245727111 -0.0050018794978 -0.0048727665752 -0.0047375666889 -0.004596763226 -0.004450942199 -0.0043011857945 
-0.0041486432584 -0.0039946408579 -0.0038407205619 -0.0036886253852 -0.0035402684488 -0.003397682674 -0.003262952983 -0.0031381290114 -0.0030251202998 
-0.0029255829534 -0.0028408039406 -0.0027715972056 -0.0027182214365 -0.0026803320672 -0.0026569744112 -0.0026466210726 -0.002647260335 -0.0026565695511 
-0.002672278372 -0.006357693764 -0.0063661607701 -0.0063691407634 -0.0063672389839 -0.0063608578925 -0.0063502055066 -0.0063353460018 -0.0063162495819 
-0.0062928258965 -0.0062649484199 -0.0062324657395 -0.0061952084183 -0.0061529903988 -0.0061056129554 -0.0060528646942 -0.0059945219071 -0.0059303539853 
-0.0058601219973 -0.0057835851406 -0.0057005089094 -0.0056106678359 -0.0055138611144 -0.0054099160254 -0.0052987112031 -0.0051801946281 -0.0050543992879 
-0.0049214669559 -0.0047816725028 -0.0046354489338 -0.004483405342 -0.0043264829743 -0.0041660279006 -0.0040034505795 -0.0038404288484 -0.0036788947314 
-0.0035210024915 -0.0033690739071 -0.0032255169324 -0.0030927163289 -0.0029729022029 -0.0028680006871 -0.0027794804813 -0.0027082132699 -0.0026543677377 
-0.0026173560087 -0.0025958471103 -0.0025878509067 -0.0025908722023 -0.0026021554968 -0.002619115596 -0.0064184108946 -0.0064270628567 -0.0064302879526 
-0.0064287039685 -0.0064227227671 -0.0064125565962 -0.0063982693514 -0.0063798254167 -0.0063571271983 -0.0063300380508 -0.0062983934984 -0.0062620066874 
-0.0062206713032 -0.006174164066 -0.0061222429471 -0.0060646513423 -0.0060011162744 -0.005931350903 -0.0058550658188 -0.0057719640576 -0.0056817590313 
-0.0055841734839 -0.0054789634507 -0.0053659307775 -0.0052449402282 -0.0051159420896 -0.0049789984003 -0.0048343099662 -0.0046822457773 -0.0045233739386 
-0.0043584927389 -0.0041891379641 -0.0040168069292 -0.0038433250968 -0.0036708403575 -0.0035017923149 -0.0033388535773 -0.0031848353618 -0.0030425541646 
-0.0029146633571 -0.0028034536042 -0.0027106456286 -0.002637198253 -0.0025831637952 -0.0025476276396 -0.0025287542935 -0.0025239431088 -0.0025300720028 
-0.0025438363978 -0.0025622607984 -0.0064855634001 -0.0064944153433 -0.0064979109262 -0.0064966831827 -0.0064911554733 -0.0064815462539 -0.0064679192312 
-0.0064502347803 -0.0064283889216 -0.0064022344827 -0.0063715929698 -0.0063362590522 -0.0062960063108 -0.0062505841606 -0.006199720754 -0.006143120584 
-0.0060804651549 -0.0060114232342 -0.005935643451 -0.0058527687909 -0.0057624358166 -0.0056642940646 -0.0055580156044 -0.005443310051 -0.0053199461322 
-0.0051877766273 -0.0050467615965 -0.0048970050324 -0.0047387882936 -0.0045726177866 -0.0043990212154 -0.0042197877617 -0.0040364827128 -0.0038510838294 
-0.003665975079 -0.0034839258497 -0.0033080331859 -0.003141614133 -0.0029880434089 -0.0028505328588 -0.002731869002 -0.0026341268408 -0.0025583983222 
-0.002504592973 -0.0024713647754 -0.0024562069901 -0.0024557007875 -0.0024659003311 -0.0024827988696 -0.002502931741 -0.0065590970794 -0.0065681644684 
-0.0065719592801 -0.0065711320754 -0.006566120066 -0.0065571489933 -0.0065442839278 -0.006527483565 -0.0065066373765 -0.0064815878211 -0.006452140732 
-0.0064180752859 -0.0063791423629 -0.0063350650856 -0.0062855376757 -0.0062302239636 -0.0061687651647 -0.0061007737489 -0.0060258398217 -0.0059435354044 
-0.005853423337 -0.0057550696986 -0.0056480495211 -0.0055319710529 -0.0054064947842 -0.0052713484831 -0.0051263715642 -0.0049715345854 -0.0048069977707 
-0.0046331582531 -0.0044502796698 -0.0042602520398 -0.0040647448183 -0.0038658857138 -0.0036663099663 -0.003469164386 -0.0032780551182 -0.0030969279626 
-0.0029298691302 -0.0027808311426 -0.002653279968 -0.0025497946303 -0.0024716833422 -0.0024186951367 -0.0023889235149 -0.0023789472729 -0.0023842516787 
-0.0023998000516 -0.0024206759821 -0.0024427959846 -0.0066389462333 -0.0066482449255 -0.0066523705827 -0.0066519937242 -0.0066475671795 -0.006639325668 
-0.0066273385527 -0.0066115635942 -0.0065918841567 -0.006568130877 -0.0065400986321 -0.006507549636 -0.0064702121636 -0.0064277820419 -0.0063799185973 
-0.0063262505756 -0.0062663717442 -0.0061998392425 -0.0061261822299 -0.0060449011437 -0.0059554832709 -0.0058573966334 -0.0057501193776 -0.0056331475213 
-0.0055060036961 -0.0053682846237 -0.0052196630253 -0.0050599509342 -0.0048891377276 -0.0047074552249 -0.0045150544503 -0.0043133834198 -0.004104473672 
-0.0038905590788 -0.0036745269944 -0.0034599408365 -0.0032509982969 -0.0030524081751 -0.002869166155 -0.0027062068384 -0.0025679274112 -0.0024576379613 
-0.0023770058698 -0.0023256271548 -0.0023008538047 -0.0022980441389 -0.0023111846509 -0.002333775 -0.0023597159865 -0.0023841385193 -0.0067250312039 
-0.0067345774761 -0.0067390683426 -0.0067391962722 -0.0067354317934 -0.0067280215505 -0.0067170412151 -0.0067024479837 -0.0066841182184 -0.0066618763317 
-0.0066355062829 -0.0066047522259 -0.0065693221957 -0.0065288836805 -0.0064830674323 -0.0064314646995 -0.0063736203399 -0.0063090412627 -0.006237192724 
-0.006157510438 -0.0060693894657 -0.0059722126866 -0.0058653477122 -0.0057481547658 -0.0056200242914 -0.005480374002 -0.0053286965907 -0.0051646017014 
-0.0049878547166 -0.0047984561436 -0.0045966536671 -0.0043826789453 -0.0041593015494 -0.003928783716 -0.0036942319418 -0.0034596355289 -0.0032298585624 
-0.0030105312461 -0.002807796541 -0.0026278748513 -0.0024764519778 -0.0023579109465 -0.0022745201088 -0.0022257564055 -0.0022080378301 -0.0022150544826 
-0.002238741461 -0.0022706128839 -0.0023030188303 -0.0023300945865 -0.006817256077 -0.0068270670073 -0.0068319597687 -0.0068326508612 -0.0068296314203 
-0.0068231631022 -0.0068133284892 -0.0068000838013 -0.0067833044073 -0.0067628096671 -0.0067383713429 -0.0067097196754 -0.0066765421095 -0.0066384844778 
-0.0065951502148 -0.006546091189 -0.006490812113 -0.0064287689194 -0.0063593732782 -0.006281983689 -0.0061959227692 -0.0061004735768 -0.0059948825021 
-0.005878384758 -0.0057502022733 -0.0056095610438 -0.0054557513113 -0.0052881282892 -0.0051062135126 -0.004909737401 -0.0046987410356 -0.0044724000745 
-0.0042338362661 -0.0039853609344 -0.0037302567726 -0.0034729280784 -0.0032189619481 -0.0029750606645 -0.0027487796819 -0.0025480271133 -0.0023802643655 
-0.0022514442423 -0.0021648153162 -0.0021198717015 -0.0021118682928 -0.0021322448665 -0.0021700865713 -0.0022141824161 -0.0022548444909 -0.0022849541159 
-0.0069155070075 -0.0069256007457 -0.0069309340297 -0.0069322499817 -0.0069300638722 -0.0069246537816 -0.0069161092078 -0.0069043914811 -0.0068893769484 
-0.0068708794914 -0.0068486627723 -0.0068224447167 -0.0067918979859 -0.0067566509884 -0.0067162792109 -0.0066703041324 -0.0066181944501 -0.0065593653436 
-0.0064931720011 -0.006418911968 -0.0063358295798 -0.0062431069152 -0.006139885362 -0.0060252544532 -0.005898248638 -0.0057579169835 -0.0056032820773 
-0.0054334452538 -0.0052475953382 -0.005045071284 -0.004825569591 -0.0045879539592 -0.0043339045935 -0.004066505969 -0.0037890643912 -0.0035063116511 
-0.0032245587982 -0.0029517024806 -0.0026970083268 -0.0024705475749 -0.0022821951696 -0.0021401850344 -0.0020493619815 -0.0020095450659 -0.0020146076325 
-0.002052961473 -0.0021097163224 -0.0021698707377 -0.0022210465994 -0.0022545676169 -0.0070196509665 -0.0070300469958 -0.0070358611495 -0.0070378661653 
-0.0070366037997 -0.0070323692291 -0.0070252647718 -0.0070152596754 -0.0070022318693 -0.0069859933038 -0.0069663028548 -0.0069428707115 -0.0069153611286 
-0.0068833864342 -0.006846501749 -0.0068042067551 -0.0067559450995 -0.0067010964007 -0.0066389682114 -0.006568806377 -0.0064897798999 -0.0064009938903 
-0.0063014737688 -0.0061901470439 -0.0060659129371 -0.0059275662642 -0.0057739070854 -0.0056036962187 -0.0054157327098 -0.0052089884369 -0.0049825447252 
-0.0047358488977 -0.0044667458959 -0.0041802114911 -0.0038792600488 -0.0035687613096 -0.0032556600801 -0.0029491148272 -0.0026603700937 -0.0024021835833 
-0.0021876348044 -0.0020282197132 -0.0019313486691 -0.0018977770358 -0.0019198920576 -0.0019821049257 -0.0020639313395 -0.0021450508924 -0.0022095523026 
-0.0022467746469 -0.0071295350416 -0.0071402547445 -0.0071465915049 -0.0071493499669 -0.0071490998806 -0.0071461590933 -0.0071406464722 -0.007132540592 
-0.0071217244499 -0.0071080117191 -0.0070911608161 -0.007070881427 -0.0070468328212 -0.0070186175641 -0.0069857811918 -0.006947815458 -0.0069041470675 
-0.0068541244711 -0.0067970293189 -0.0067320631806 -0.0066583453187 -0.006574904554 -0.0064806431171 -0.006374401133 -0.0062548634404 -0.0061206636218 
-0.005970281339 -0.0058021727658 -0.005614763055 -0.0054064715305 -0.0051759746824 -0.0049221959551 -0.0046411471001 -0.0043366797691 -0.0040122145782 
-0.0036726066451 -0.0033252290887 -0.0029804040323 -0.0026514946554 -0.002354435388 -0.00210641858 -0.0019234896794 -0.0018170819331 -0.0017900321798 
-0.0018334886299 -0.0019266653039 -0.0020413040226 -0.0021495669435 -0.0022309902208 -0.0022717364567 -0.0072449867087 -0.0072560542541 -0.0072629559654 
-0.0072665297398 -0.0072673782212 -0.0072658464976 -0.0072620722499 -0.0072560474489 -0.0072476634589 -0.0072367407346 -0.007223044188 -0.0072062881627 
-0.007186132686 -0.0071621809028 -0.0071339863838 -0.0071010401653 -0.0070627559787 -0.0070184797464 -0.0069674792115 -0.0069089338775 -0.0068419305729 
-0.0067654201346 -0.0066782622992 -0.0065791518284 -0.0064666753231 -0.0063392067115 -0.0061950360305 -0.0060322660984 -0.0058488967558 -0.0056428876554 
-0.0054121453504 -0.0051547826087 -0.0048687363315 -0.0045488474961 -0.004202855499 -0.0038347112237 -0.0034517435399 -0.0030651422211 -0.0026902911565 
-0.0023465592026 -0.0020560618905 -0.0018408839926 -0.0017185212154 -0.0016959622332 -0.0017640980192 -0.0018960501286 -0.0020527919364 -0.0021956610432 
-0.0022978655986 -0.0023434307217 -0.0073658157967 -0.0073772593451 -0.0073847678377 -0.0073892153791 -0.0073912424481 -0.0073912248541 -0.0073893243564 
-0.0073855497593 -0.0073798064638 -0.0073719279424 -0.0073616917155 -0.0073488223261 -0.0073329892459 -0.0073138167251 -0.0072908714666 -0.0072636502172 
-0.0072315833317 -0.0071940287032 -0.0071502621947 -0.0070994686105 -0.0070407051955 -0.0069729196784 -0.0068949122207 -0.0068053297652 -0.0067026057775 
-0.0065850182491 -0.0064506126278 -0.0062972204144 -0.0061224744995 -0.00592382696 -0.0056986328288 -0.0054442738172 -0.0051584167583 -0.0048323230803 
-0.0044703371716 -0.0040776513942 -0.0036611556767 -0.0032322691398 -0.0028077915094 -0.0024102272107 -0.002066964474 -0.0018074866259 -0.0016578732344 
-0.0016324790408 -0.0017247622015 -0.0019019576077 -0.0021109046899 -0.0022973015405 -0.0024252584635 -0.002478003601 -0.0074918183668 -0.007503670525 
-0.0075118262114 -0.0075171993057 -0.0075204725599 -0.0075220591144 -0.0075221492718 -0.0075207743909 -0.0075178599094 -0.0075132587513 -0.0075067667958 
-0.0074981261345 -0.0074870369857 -0.0074731479299 -0.0074560489341 -0.0074352671658 -0.0074102670385 -0.0073804424235 -0.0073451035929 -0.0073034528751 