# vtk DataFile Version 4.1
vtk output
ASCII
DATASET STRUCTURED_GRID
DIMENSIONS 51 51 1
POINTS 2601 float
0 0 0 0.02 0 0 0.04 0 0 
0.06 0 0 0.08 0 0 0.1 0 0 
0.12 0 0 0.14 0 0 0.16 0 0 
0.18 0 0 0.2 0 0 0.22 0 0 
0.24 0 0 0.26 0 0 0.28 0 0 
0.3 0 0 0.32 0 0 0.34 0 0 
0.36 0 0 0.38 0 0 0.4 0 0 
0.42 0 0 0.44 0 0 0.46 0 0 
0.48 0 0 0.5 0 0 0.52 0 0 
0.54 0 0 0.56 0 0 0.58 0 0 
0.6 0 0 0.62 0 0 0.64 0 0 
0.66 0 0 0.68 0 0 0.7 0 0 
0.72 0 0 0.74 0 0 0.76 0 0 
0.78 0 0 0.8 0 0 0.82 0 0 
0.84 0 0 0.86 0 0 0.88 0 0 
0.9 0 0 0.92 0 0 0.94 0 0 
0.96 0 0 0.98 0 0 1 0 0 
0 0.02 0 0.02 0.02 0 0.04 0.02 0 
0.06 0.02 0 0.08 0.02 0 0.1 0.02 0 
0.12 0.02 0 0.14 0.02 0 0.16 0.02 0 
0.18 0.02 0 0.2 0.02 0 0.22 0.02 0 
0.24 0.02 0 0.26 0.02 0 0.28 0.02 0 
0.3 0.02 0 0.32 0.02 0 0.34 0.02 0 
0.36 0.02 0 0.38 0.02 0 0.4 0.02 0 
0.42 0.02 0 0.44 0.02 0 0.46 0.02 0 
0.48 0.02 0 0.5 0.02 0 0.52 0.02 0 
0.54 0.02 0 0.56 0.02 0 0.58 0.02 0 
0.6 0.02 0 0.62 0.02 0 0.64 0.02 0 
0.66 0.02 0 0.68 0.02 0 0.7 0.02 0 
0.72 0.02 0 0.74 0.02 0 0.76 0.02 0 
0.78 0.02 0 0.8 0.02 0 0.82 0.02 0 
0.84 0.02 0 0.86 0.02 0 0.88 0.02 0 
0.9 0.02 0 0.92 0.02 0 0.94 0.02 0 
0.96 0.02 0 0.98 0.02 0 1 0.02 0 
0 0.04 0 0.02 0.04 0 0.04 0.04 0 
0.06 0.04 0 0.08 0.04 0 0.1 0.04 0 
0.12 0.04 0 0.14 0.04 0 0.16 0.04 0 
0.18 0.04 0 0.2 0.04 0 0.22 0.04 0 
0.24 0.04 0 0.26 0.04 0 0.28 0.04 0 
0.3 0.04 0 0.32 0.04 0 0.34 0.04 0 
0.36 0.04 0 0.38 0.04 0 0.4 0.04 0 
0.42 0.04 0 0.44 0.04 0 0.46 0.04 0 
0.48 0.04 0 0.5 0.04 0 0.52 0.04 0 
0.54 0.04 0 0.56 0.04 0 0.58 0.04 0 
0.6 0.04 0 0.62 0.04 0 0.64 0.04 0 
0.66 0.04 0 0.68 0.04 0 0.7 0.04 0 
0.72 0.04 0 0.74 0.04 0 0.76 0.04 0 
0.78 0.04 0 0.8 0.04 0 0.82 0.04 0 
0.84 0.04 0 0.86 0.04 0 0.88 0.04 0 
0.9 0.04 0 0.92 0.04 0 0.94 0.04 0 
0.96 0.04 0 0.98 0.04 0 1 0.04 0 
0 0.06 0 0.02 0.06 0 0.04 0.06 0 
0.06 0.06 0 0.08 0.06 0 0.1 0.06 0 
0.12 0.06 0 0.14 0.06 0 0.16 0.06 0 
0.18 0.06 0 0.2 0.06 0 0.22 0.06 0 
0.24 0.06 0 0.26 0.06 0 0.28 0.06 0 
0.3 0.06 0 0.32 0.06 0 0.34 0.06 0 
0.36 0.06 0 0.38 0.06 0 0.4 0.06 0 
0.42 0.06 0 0.44 0.06 0 0.46 0.06 0 
0.48 0.06 0 0.5 0.06 0 0.52 0.06 0 
0.54 0.06 0 0.56 0.06 0 0.58 0.06 0 
0.6 0.06 0 0.62 0.06 0 0.64 0.06 0 
0.66 0.06 0 0.68 0.06 0 0.7 0.06 0 
0.72 0.06 0 0.74 0.06 0 0.76 0.06 0 
0.78 0.06 0 0.8 0.06 0 0.82 0.06 0 
0.84 0.06 0 0.86 0.06 0 0.88 0.06 0 
0.9 0.06 0 0.92 0.06 0 0.94 0.06 0 
0.96 0.06 0 0.98 0.06 0 1 0.06 0 
0 0.08 0 0.02 0.08 0 0.04 0.08 0 
0.06 0.08 0 0.08 0.08 0 0.1 0.08 0 
0.12 0.08 0 0.14 0.08 0 0.16 0.08 0 
0.18 0.08 0 0.2 0.08 0 0.22 0.08 0 
0.24 0.08 0 0.26 0.08 0 0.28 0.08 0 
0.3 0.08 0 0.32 0.08 0 0.34 0.08 0 
0.36 0.08 0 0.38 0.08 0 0.4 0.08 0 
0.42 0.08 0 0.44 0.08 0 0.46 0.08 0 
0.48 0.08 0 0.5 0.08 0 0.52 0.08 0 
0.54 0.08 0 0.56 0.08 0 0.58 0.08 0 
0.6 0.08 0 0.62 0.08 0 0.64 0.08 0 
0.66 0.08 0 0.68 0.08 0 0.7 0.08 0 
0.72 0.08 0 0.74 0.08 0 0.76 0.08 0 
0.78 0.08 0 0.8 0.08 0 0.82 0.08 0 
0.84 0.08 0 0.86 0.08 0 0.88 0.08 0 
0.9 0.08 0 0.92 0.08 0 0.94 0.08 0 
0.96 0.08 0 0.98 0.08 0 1 0.08 0 
0 0.1 0 0.02 0.1 0 0.04 0.1 0 
0.06 0.1 0 0.08 0.1 0 0.1 0.1 0 
0.12 0.1 0 0.14 0.1 0 0.16 0.1 0 
0.18 0.1 0 0.2 0.1 0 0.22 0.1 0 
0.24 0.1 0 0.26 0.1 0 0.28 0.1 0 
0.3 0.1 0 0.32 0.1 0 0.34 0.1 0 
0.36 0.1 0 0.38 0.1 0 0.4 0.1 0 
0.42 0.1 0 0.44 0.1 0 0.46 0.1 0 
0.48 0.1 0 0.5 0.1 0 0.52 0.1 0 
0.54 0.1 0 0.56 0.1 0 0.58 0.1 0 
0.6 0.1 0 0.62 0.1 0 0.64 0.1 0 
0.66 0.1 0 0.68 0.1 0 0.7 0.1 0 
0.72 0.1 0 0.74 0.1 0 0.76 0.1 0 
0.78 0.1 0 0.8 0.1 0 0.82 0.1 0 
0.84 0.1 0 0.86 0.1 0 0.88 0.1 0 
0.9 0.1 0 0.92 0.1 0 0.94 0.1 0 
0.96 0.1 0 0.98 0.1 0 1 0.1 0 
0 0.12 0 0.02 0.12 0 0.04 0.12 0 
0.06 0.12 0 0.08 0.12 0 0.1 0.12 0 
0.12 0.12 0 0.14 0.12 0 0.16 0.12 0 
0.18 0.12 0 0.2 0.12 0 0.22 0.12 0 
0.24 0.12 0 0.26 0.12 0 0.28 0.12 0 
0.3 0.12 0 0.32 0.12 0 0.34 0.12 0 
0.36 0.12 0 0.38 0.12 0 0.4 0.12 0 
0.42 0.12 0 0.44 0.12 0 0.46 0.12 0 
0.48 0.12 0 0.5 0.12 0 0.52 0.12 0 
0.54 0.12 0 0.56 0.12 0 0.58 0.12 0 
0.6 0.12 0 0.62 0.12 0 0.64 0.12 0 
0.66 0.12 0 0.68 0.12 0 0.7 0.12 0 
0.72 0.12 0 0.74 0.12 0 0.76 0.12 0 
0.78 0.12 0 0.8 0.12 0 0.82 0.12 0 
0.84 0.12 0 0.86 0.12 0 0.88 0.12 0 
0.9 0.12 0 0.92 0.12 0 0.94 0.12 0 
0.96 0.12 0 0.98 0.12 0 1 0.12 0 
0 0.14 0 0.02 0.14 0 0.04 0.14 0 
0.06 0.14 0 0.08 0.14 0 0.1 0.14 0 
0.12 0.14 0 0.14 0.14 0 0.16 0.14 0 
0.18 0.14 0 0.2 0.14 0 0.22 0.14 0 
0.24 0.14 0 0.26 0.14 0 0.28 0.14 0 
0.3 0.14 0 0.32 0.14 0 0.34 0.14 0 
0.36 0.14 0 0.38 0.14 0 0.4 0.14 0 
0.42 0.14 0 0.44 0.14 0 0.46 0.14 0 
0.48 0.14 0 0.5 0.14 0 0.52 0.14 0 
0.54 0.14 0 0.56 0.14 0 0.58 0.14 0 
0.6 0.14 0 0.62 0.14 0 0.64 0.14 0 
0.66 0.14 0 0.68 0.14 0 0.7 0.14 0 
0.72 0.14 0 0.74 0.14 0 0.76 0.14 0 
0.78 0.14 0 0.8 0.14 0 0.82 0.14 0 
0.84 0.14 0 0.86 0.14 0 0.88 0.14 0 
0.9 0.14 0 0.92 0.14 0 0.94 0.14 0 
0.96 0.14 0 0.98 0.14 0 1 0.14 0 
0 0.16 0 0.02 0.16 0 0.04 0.16 0 
0.06 0.16 0 0.08 0.16 0 0.1 0.16 0 
0.12 0.16 0 0.14 0.16 0 0.16 0.16 0 
0.18 0.16 0 0.2 0.16 0 0.22 0.16 0 
0.24 0.16 0 0.26 0.16 0 0.28 0.16 0 
0.3 0.16 0 0.32 0.16 0 0.34 0.16 0 
0.36 0.16 0 0.38 0.16 0 0.4 0.16 0 
0.42 0.16 0 0.44 0.16 0 0.46 0.16 0 
0.48 0.16 0 0.5 0.16 0 0.52 0.16 0 
0.54 0.16 0 0.56 0.16 0 0.58 0.16 0 
0.6 0.16 0 0.62 0.16 0 0.64 0.16 0 
0.66 0.16 0 0.68 0.16 0 0.7 0.16 0 
0.72 0.16 0 0.74 0.16 0 0.76 0.16 0 
0.78 0.16 0 0.8 0.16 0 0.82 0.16 0 
0.84 0.16 0 0.86 0.16 0 0.88 0.16 0 
0.9 0.16 0 0.92 0.16 0 0.94 0.16 0 
0.96 0.16 0 0.98 0.16 0 1 0.16 0 
0 0.18 0 0.02 0.18 0 0.04 0.18 0 
0.06 0.18 0 0.08 0.18 0 0.1 0.18 0 
0.12 0.18 0 0.14 0.18 0 0.16 0.18 0 
0.18 0.18 0 0.2 0.18 0 0.22 0.18 0 
0.24 0.18 0 0.26 0.18 0 0.28 0.18 0 
0.3 0.18 0 0.32 0.18 0 0.34 0.18 0 
0.36 0.18 0 0.38 0.18 0 0.4 0.18 0 
0.42 0.18 0 0.44 0.18 0 0.46 0.18 0 
0.48 0.18 0 0.5 0.18 0 0.52 0.18 0 
0.54 0.18 0 0.56 0.18 0 0.58 0.18 0 
0.6 0.18 0 0.62 0.18 0 0.64 0.18 0 
0.66 0.18 0 0.68 0.18 0 0.7 0.18 0 
0.72 0.18 0 0.74 0.18 0 0.76 0.18 0 
0.78 0.18 0 0.8 0.18 0 0.82 0.18 0 
0.84 0.18 0 0.86 0.18 0 0.88 0.18 0 
0.9 0.18 0 0.92 0.18 0 0.94 0.18 0 
0.96 0.18 0 0.98 0.18 0 1 0.18 0 
0 0.2 0 0.02 0.2 0 0.04 0.2 0 
0.06 0.2 0 0.08 0.2 0 0.1 0.2 0 
0.12 0.2 0 0.14 0.2 0 0.16 0.2 0 
0.18 0.2 0 0.2 0.2 0 0.22 0.2 0 
0.24 0.2 0 0.26 0.2 0 0.28 0.2 0 
0.3 0.2 0 0.32 0.2 0 0.34 0.2 0 
0.36 0.2 0 0.38 0.2 0 0.4 0.2 0 
0.42 0.2 0 0.44 0.2 0 0.46 0.2 0 
0.48 0.2 0 0.5 0.2 0 0.52 0.2 0 
0.54 0.2 0 0.56 0.2 0 0.58 0.2 0 
0.6 0.2 0 0.62 0.2 0 0.64 0.2 0 
0.66 0.2 0 0.68 0.2 0 0.7 0.2 0 
0.72 0.2 0 0.74 0.2 0 0.76 0.2 0 
0.78 0.2 0 0.8 0.2 0 0.82 0.2 0 
0.84 0.2 0 0.86 0.2 0 0.88 0.2 0 
0.9 0.2 0 0.92 0.2 0 0.94 0.2 0 
0.96 0.2 0 0.98 0.2 0 1 0.2 0 
0 0.22 0 0.02 0.22 0 0.04 0.22 0 
0.06 0.22 0 0.08 0.22 0 0.1 0.22 0 
0.12 0.22 0 0.14 0.22 0 0.16 0.22 0 
0.18 0.22 0 0.2 0.22 0 0.22 0.22 0 
0.24 0.22 0 0.26 0.22 0 0.28 0.22 0 
0.3 0.22 0 0.32 0.22 0 0.34 0.22 0 
0.36 0.22 0 0.38 0.22 0 0.4 0.22 0 
0.42 0.22 0 0.44 0.22 0 0.46 0.22 0 
0.48 0.22 0 0.5 0.22 0 0.52 0.22 0 
0.54 0.22 0 0.56 0.22 0 0.58 0.22 0 
0.6 0.22 0 0.62 0.22 0 0.64 0.22 0 
0.66 0.22 0 0.68 0.22 0 0.7 0.22 0 
0.72 0.22 0 0.74 0.22 0 0.76 0.22 0 
0.78 0.22 0 0.8 0.22 0 0.82 0.22 0 
0.84 0.22 0 0.86 0.22 0 0.88 0.22 0 
0.9 0.22 0 0.92 0.22 0 0.94 0.22 0 
0.96 0.22 0 0.98 0.22 0 1 0.22 0 
0 0.24 0 0.02 0.24 0 0.04 0.24 0 
0.06 0.24 0 0.08 0.24 0 0.1 0.24 0 
0.12 0.24 0 0.14 0.24 0 0.16 0.24 0 
0.18 0.24 0 0.2 0.24 0 0.22 0.24 0 
0.24 0.24 0 0.26 0.24 0 0.28 0.24 0 
0.3 0.24 0 0.32 0.24 0 0.34 0.24 0 
0.36 0.24 0 0.38 0.24 0 0.4 0.24 0 
0.42 0.24 0 0.44 0.24 0 0.46 0.24 0 
0.48 0.24 0 0.5 0.24 0 0.52 0.24 0 
0.54 0.24 0 0.56 0.24 0 0.58 0.24 0 
0.6 0.24 0 0.62 0.24 0 0.64 0.24 0 
0.66 0.24 0 0.68 0.24 0 0.7 0.24 0 
0.72 0.24 0 0.74 0.24 0 0.76 0.24 0 
0.78 0.24 0 0.8 0.24 0 0.82 0.24 0 
0.84 0.24 0 0.86 0.24 0 0.88 0.24 0 
0.9 0.24 0 0.92 0.24 0 0.94 0.24 0 
0.96 0.24 0 0.98 0.24 0 1 0.24 0 
0 0.26 0 0.02 0.26 0 0.04 0.26 0 
0.06 0.26 0 0.08 0.26 0 0.1 0.26 0 
0.12 0.26 0 0.14 0.26 0 0.16 0.26 0 
0.18 0.26 0 0.2 0.26 0 0.22 0.26 0 
0.24 0.26 0 0.26 0.26 0 0.28 0.26 0 
0.3 0.26 0 0.32 0.26 0 0.34 0.26 0 
0.36 0.26 0 0.38 0.26 0 0.4 0.26 0 
0.42 0.26 0 0.44 0.26 0 0.46 0.26 0 
0.48 0.26 0 0.5 0.26 0 0.52 0.26 0 
0.54 0.26 0 0.56 0.26 0 0.58 0.26 0 
0.6 0.26 0 0.62 0.26 0 0.64 0.26 0 
0.66 0.26 0 0.68 0.26 0 0.7 0.26 0 
0.72 0.26 0 0.74 0.26 0 0.76 0.26 0 
0.78 0.26 0 0.8 0.26 0 0.82 0.26 0 
0.84 0.26 0 0.86 0.26 0 0.88 0.26 0 
0.9 0.26 0 0.92 0.26 0 0.94 0.26 0 
0.96 0.26 0 0.98 0.26 0 1 0.26 0 
0 0.28 0 0.02 0.28 0 0.04 0.28 0 
0.06 0.28 0 0.08 0.28 0 0.1 0.28 0 
0.12 0.28 0 0.14 0.28 0 0.16 0.28 0 
0.18 0.28 0 0.2 0.28 0 0.22 0.28 0 
0.24 0.28 0 0.26 0.28 0 0.28 0.28 0 
0.3 0.28 0 0.32 0.28 0 0.34 0.28 0 
0.36 0.28 0 0.38 0.28 0 0.4 0.28 0 
0.42 0.28 0 0.44 0.28 0 0.46 0.28 0 
0.48 0.28 0 0.5 0.28 0 0.52 0.28 0 
0.54 0.28 0 0.56 0.28 0 0.58 0.28 0 
0.6 0.28 0 0.62 0.28 0 0.64 0.28 0 
0.66 0.28 0 0.68 0.28 0 0.7 0.28 0 
0.72 0.28 0 0.74 0.28 0 0.76 0.28 0 
0.78 0.28 0 0.8 0.28 0 0.82 0.28 0 
0.84 0.28 0 0.86 0.28 0 0.88 0.28 0 
0.9 0.28 0 0.92 0.28 0 0.94 0.28 0 
0.96 0.28 0 0.98 0.28 0 1 0.28 0 
0 0.3 0 0.02 0.3 0 0.04 0.3 0 
0.06 0.3 0 0.08 0.3 0 0.1 0.3 0 
0.12 0.3 0 0.14 0.3 0 0.16 0.3 0 
0.18 0.3 0 0.2 0.3 0 0.22 0.3 0 
0.24 0.3 0 0.26 0.3 0 0.28 0.3 0 
0.3 0.3 0 0.32 0.3 0 0.34 0.3 0 
0.36 0.3 0 0.38 0.3 0 0.4 0.3 0 
0.42 0.3 0 0.44 0.3 0 0.46 0.3 0 
0.48 0.3 0 0.5 0.3 0 0.52 0.3 0 
0.54 0.3 0 0.56 0.3 0 0.58 0.3 0 
0.6 0.3 0 0.62 0.3 0 0.64 0.3 0 
0.66 0.3 0 0.68 0.3 0 0.7 0.3 0 
0.72 0.3 0 0.74 0.3 0 0.76 0.3 0 
0.78 0.3 0 0.8 0.3 0 0.82 0.3 0 
0.84 0.3 0 0.86 0.3 0 0.88 0.3 0 
0.9 0.3 0 0.92 0.3 0 0.94 0.3 0 
0.96 0.3 0 0.98 0.3 0 1 0.3 0 
0 0.32 0 0.02 0.32 0 0.04 0.32 0 
0.06 0.32 0 0.08 0.32 0 0.1 0.32 0 
0.12 0.32 0 0.14 0.32 0 0.16 0.32 0 
0.18 0.32 0 0.2 0.32 0 0.22 0.32 0 
0.24 0.32 0 0.26 0.32 0 0.28 0.32 0 
0.3 0.32 0 0.32 0.32 0 0.34 0.32 0 
0.36 0.32 0 0.38 0.32 0 0.4 0.32 0 
0.42 0.32 0 0.44 0.32 0 0.46 0.32 0 
0.48 0.32 0 0.5 0.32 0 0.52 0.32 0 
0.54 0.32 0 0.56 0.32 0 0.58 0.32 0 
[...]
CELL_DATA 2500
FIELD FieldData 2
pressure 1 2500 double
-0.0039460591018 -0.0039500311257 -0.0039525305759 -0.0039519073452 -0.0039478078028 -0.0039402592927 -0.0039293339917 -0.0039150802738 -0.0038975273062 
-0.0038766973529 -0.0038526134704 -0.0038253035168 -0.0037948024635 -0.0037611541202 -0.0037244125049 -0.0036846431266 -0.0036419243215 -0.0035963486021 
-0.0035480239097 -0.0034970747934 -0.0034436435897 -0.0033878915439 -0.00332999979 -0.0032701701973 -0.0032086259455 -0.0031456114444 -0.0030813916177 
-0.0030162548538 -0.0029505340166 -0.0028845575635 -0.0028186784941 -0.0027532698864 -0.0026887218008 -0.0026254382799 -0.0025638340254 -0.0025043306493 
-0.0024473525283 -0.0023933222212 -0.0023426555066 -0.0022957562248 -0.002253011057 -0.0022147845715 -0.0021814150904 -0.0021532124078 -0.0021304586798 
-0.0021134111473 -0.0021022887823 -0.0020971666662 -0.0020975694042 -0.0021014205782 -0.003942118894 -0.0039461094544 -0.0039478944522 -0.0039468080824 
-0.0039425410317 -0.0039349974899 -0.0039241629474 -0.0039100455506 -0.003892658809 -0.0038720190543 -0.0038481466835 -0.0038210679062 -0.0037908164418 
-0.0037574348375 -0.0037209758105 -0.0036815035916 -0.0036390952497 -0.0035938419262 -0.0035458500448 -0.0034952425631 -0.0034421601663 -0.0033867623835 
-0.0033292286989 -0.0032697594514 -0.0032085762581 -0.0031459220251 -0.0030820600564 -0.0030172894484 -0.0029519226053 -0.0028862918894 -0.0028207503435 
-0.0027556700631 -0.0026914398635 -0.0026284625181 -0.0025671515441 -0.0025079275054 -0.0024512138513 -0.0023974322688 -0.0023469977414 -0.0023003133402 
-0.0022577649215 -0.0022197159122 -0.0021865023781 -0.0021584282641 -0.0021357593581 -0.0021187100169 -0.0021074052237 -0.0021017821483 -0.0021013995122 
-0.0021052695228 -0.0039397382409 -0.003944502178 -0.0039463148399 -0.0039451159551 -0.0039407918805 -0.0039332690061 -0.0039225127715 -0.0039085119141 
-0.0038912677993 -0.003870789756 -0.0038470938322 -0.0038202032343 -0.0037901490321 -0.0037569713347 -0.0037207204955 -0.0036814584078 -0.0036392596969 
-0.0035942129131 -0.0035464218499 -0.003496006812 -0.0034431058551 -0.0033878761046 -0.0033304948597 -0.0032711604031 -0.0032100928638 -0.0031475350395 
-0.0030837532543 -0.0030190415337 -0.0029537038822 -0.0028880760551 -0.0028225127865 -0.0027573873983 -0.0026930901054 -0.0026300255211 -0.0025686094819 
-0.0025092653569 -0.0024524198309 -0.002398498199 -0.0023479193176 -0.0023010902177 -0.0022584005825 -0.0022202171252 -0.002186877805 -0.0021586854076 
-0.0021358988913 -0.0021187181904 -0.0021072538453 -0.0021014727918 -0.0021011406099 -0.0021058911233 -0.0039407374255 -0.0039460684534 -0.003948090609 
-0.0039469544298 -0.0039426674631 -0.0039351996715 -0.0039245240901 -0.0039106255236 -0.0038934994794 -0.0038731500772 -0.0038495892101 -0.0038228362922 
-0.0037929190164 -0.0037598741825 -0.0037237489222 -0.003684601764 -0.0036425037899 -0.0035975399956 -0.00354981058 -0.0034994323027 -0.0034465399602 
-0.0033912875687 -0.0033338494254 -0.003274421384 -0.0032132219083 -0.0031504929096 -0.0030865010952 -0.003021535151 -0.0029559016271 -0.0028899369882 
-0.0028239979824 -0.0027584608583 -0.0026937196292 -0.0026301835601 -0.0025682740435 -0.0025084209198 -0.0024510581135 -0.0023966188134 -0.0023455302588 
-0.0022982082043 -0.0022550510907 -0.0022164339127 -0.002182701761 -0.0021541627842 -0.0021310796252 -0.0021136571119 -0.0021020225226 -0.0020961964827 
-0.0020960697132 -0.0021014571475 -0.0039455954029 -0.0039512475855 -0.0039534715379 -0.0039524550597 -0.0039482529897 -0.003940863206 -0.0039302698203 
-0.0039164594974 -0.0038994256416 -0.0038791690884 -0.0038556978052 -0.0038290274277 -0.0037991816763 -0.0037661935136 -0.0037301059359 -0.0036909731332 
-0.0036488618416 -0.0036038525913 -0.0035560411721 -0.0035055402148 -0.0034524803924 -0.0033970117374 -0.0033393052137 -0.0032795538099 -0.003217973394 
-0.0031548037621 -0.003090309621 -0.003024780178 -0.0029585266345 -0.002891886201 -0.0028252185614 -0.0027589044615 -0.0026933438375 -0.0026289533289 
-0.0025661631023 -0.0025054130121 -0.002447148146 -0.0023918139875 -0.0023398510102 -0.0022916887684 -0.0022477395365 -0.0022083916997 -0.0021740029403 
-0.0021448931012 -0.002121336286 -0.002103551017 -0.0020916858156 -0.0020857963977 -0.0020858170601 -0.0020915657407 -0.0039543533037 -0.0039602030689 
-0.0039625938824 -0.0039617053957 -0.003957604457 -0.0039503010952 -0.0039397862971 -0.0039260487691 -0.003909081061 -0.00388888118 -0.0038654536913 
-0.0038388100782 -0.0038089699653 -0.0037759615833 -0.00373982301 -0.0037006034149 -0.0036583642707 -0.0036131809091 -0.003565144114 -0.0035143613286 
-0.0034609582719 -0.0034050806945 -0.0033468954672 -0.0032865917141 -0.0032243820903 -0.0031605037343 -0.0030952189106 -0.0030288199234 -0.0029616226501 
-0.0028939663902 -0.0028262149494 -0.0027587552616 -0.00269199546 -0.0026263622095 -0.0025622974965 -0.0025002548627 -0.0024406949723 -0.0023840804758 
-0.0023308700929 -0.0022815122182 -0.0022364381532 -0.0021960550598 -0.0021607387512 -0.0021308264111 -0.0021066090075 -0.0020883222363 -0.0020761327029 
-0.0020701128015 -0.0020702003776 -0.0020761759887 -0.0039669778138 -0.0039729873213 -0.0039755252168 -0.0039747616145 -0.0039707644019 -0.0039635472649 
-0.0039531037269 -0.0039394231055 -0.0039224964069 -0.0039023190359 -0.0038788916959 -0.003852221864 -0.003822324073 -0.0037892213163 -0.0037529460826 
-0.0037135416112 -0.0036710634779 -0.003625581128 -0.00357717911 -0.0035259589812 -0.0034720411059 -0.0034155657577 -0.0033566946534 -0.0032956124264 
-0.0032325278027 -0.0031676748465 -0.0031013139525 -0.0030337403842 -0.0029652746157 -0.0028962592761 -0.0028270638319 -0.0027580831712 -0.0026897355973 
-0.0026224604064 -0.0025567149674 -0.0024929708064 -0.0024317087777 -0.0023734134669 -0.0023185669422 -0.002267641886 -0.0022210942334 -0.0021793555962 
-0.0021428256531 -0.0021118644598 -0.0020867843606 -0.0020678401937 -0.002055213729 -0.0020489841095 -0.0020490790515 -0.0020552431526 -0.0039834548916 
-0.0039896259971 -0.0039923078293 -0.0039916678495 -0.0039877737879 -0.0039806397435 -0.0039702592566 -0.0039566203853 -0.0039397119913 -0.0039195260252 
-0.0038960594229 -0.0038693144642 -0.0038393003545 -0.0038060340516 -0.0037695416514 -0.0037298598859 -0.0036870376166 -0.0036411371045 -0.0035922361347 
-0.0035404297134 -0.0034858312971 -0.0034285746841 -0.0033688154871 -0.0033067326813 -0.0032425304759 -0.0031764397477 -0.0031087189342 -0.0030396648446 
-0.0029696030568 -0.0028988806598 -0.0028278738192 -0.0027569867063 -0.0026866501133 -0.0026173193351 -0.0025494709246 -0.0024835984283 -0.0024202074385 
-0.0023598096508 -0.0023029160154 -0.0022500292963 -0.0022016362977 -0.0021581996795 -0.0021201493837 -0.0020878738879 -0.0020617111284 -0.0020419373652 
-0.0020287489931 -0.002022228369 -0.0020222898075 -0.0020286480621 -0.0040037982274 -0.0040101482483 -0.0040129814336 -0.0040124683978 -0.0040086782095 
-0.0040016248021 -0.0039913002374 -0.0039776903224 -0.003960780653 -0.0039405595278 -0.0039170187571 -0.0038901553051 -0.0038599720636 -0.0038264793419 
-0.00378969621 -0.0037496520032 -0.0037063875987 -0.0036599576868 -0.0036104322531 -0.0035578980969 -0.0035024608291 -0.0034442462755 -0.003383402541 
-0.0033201023201 -0.003254544518 -0.0031869556688 -0.0031175915844 -0.0030467495385 -0.0029747607719 -0.0029019768746 -0.002828781501 -0.0027555901547 
-0.0026828488948 -0.002611031901 -0.0025406383134 -0.0024721880339 -0.0024062162775 -0.002343267106 -0.0022838864395 -0.0022286142506 -0.0021779757108 
-0.0021324716072 -0.0020925685972 -0.0020586894906 -0.0020312029294 -0.0020104102395 -0.0019965239742 -0.0019896291943 -0.0019896259789 -0.0019962016424 
-0.0040280423313 -0.0040345943602 -0.0040375922643 -0.0040372137051 -0.0040335310205 -0.0040265581041 -0.0040162850393 -0.0040026945271 -0.003985768462 
-0.003965490173 -0.0039418461382 -0.0039148269351 -0.003884428681 -0.0038506542787 -0.003813514916 -0.0037730313153 -0.0037292360824 -0.0036821749235 
-0.0036319085727 -0.0035785145219 -0.0035220885378 -0.0034627471595 -0.0034006302263 -0.0033359025936 -0.0032687560804 -0.0031994118474 -0.0031281224527 
-0.0030551835521 -0.0029809320364 -0.0029057243165 -0.002829953033 -0.0027540466973 -0.0026784684364 -0.0026037141829 -0.0025303093734 -0.0024588042497 
-0.002389768574 -0.0023237854593 -0.0022614435929 -0.0022033278838 -0.0021500092907 -0.0021020342893 -0.0020599140107 -0.0020241129594 -0.0019950367647 
-0.0019730165418 -0.0019582837979 -0.0019509269979 -0.0019508310638 -0.0019576546709 -0.0040562368872 -0.0040630165076 -0.004066196017 -0.0040659630057 
-0.0040623946899 -0.0040555053354 -0.0040452829233 -0.0040317066319 -0.0040147536631 -0.0039944019721 -0.0039706317702 -0.0039434267921 -0.0039127755695 
-0.0038786728175 -0.0038411206857 -0.0038001310633 -0.0037557265877 -0.0037079429275 -0.0036568300237 -0.0036024539255 -0.0035448993958 -0.0034842726541 
-0.0034207030215 -0.0033543454294 -0.0032853833615 -0.0032140312221 -0.0031405362103 -0.00306518948 -0.0029883349179 -0.002910334208 -0.0028315892211 
-0.0027525423062 -0.0026736757672 -0.0025955096211 -0.0025185984244 -0.002443527739 -0.0023709089143 -0.0023013715243 -0.0022355542354 -0.0021740947785 
-0.0021176189037 -0.0020667282756 -0.0020219876547 -0.0019839116488 -0.0019529502868 -0.0019294704912 -0.0019137267756 -0.0019058123316 -0.0019055951199 
-0.0019127012729 -0.0040884437679 -0.00409547809 -0.0040988586108 -0.0040987852684 -0.0040953414289 -0.004088542469 -0.004078374123 -0.004064811559 
-0.004047826736 -0.0040273916261 -0.0040034796063 -0.0039760668681 -0.0039451336003 -0.0039106653019 -0.0038726548705 -0.0038311035733 -0.0037860234007 
-0.0037374379504 -0.0036853844678 -0.0036299163631 -0.0035711062113 -0.0035090470176 -0.0034438555133 -0.0033756752307 -0.0033046790368 -0.0032310716229 
-0.0031550928478 -0.0030770276305 -0.002997227336 -0.0029160578585 -0.0028339302555 -0.0027513014276 -0.0026686733015 -0.0025865920304 -0.0025056463293 
-0.0024264632576 -0.0023497016189 -0.0022760440966 -0.0022061879713 -0.0021408339015 -0.0020806729576 -0.0020263725439 -0.0019785616146 -0.0019378151219 
-0.0019046368578 -0.0018794372739 -0.0018624988651 -0.0018539207645 -0.0018535510973 -0.0018609777192 -0.0041247356101 -0.0041320531122 -0.0041356562539 
-0.0041357593612 -0.004132453589 -0.0041257558071 -0.0041156495479 -0.0041021054502 -0.0040850899758 -0.0040645684706 -0.0040405069869 -0.0040128734027 
-0.0039816387616 -0.0039467790487 -0.0039082762925 -0.0038661206175 -0.0038203111153 -0.0037708576958 -0.0037177836121 -0.0036611285083 -0.0036009491769 
-0.0035373238524 -0.0034703546806 -0.0034001707456 -0.0033269310118 -0.0032508283134 -0.0031720937029 -0.003091002071 -0.0030079119861 -0.002923192325 
-0.002837262018 -0.0027505912766 -0.002663703357 -0.0025771746776 -0.0024916319715 -0.0024077478275 -0.0023262348659 -0.0022478376908 -0.0021733222093 
-0.0021034628011 -0.0020390277696 -0.0019807631461 -0.0019293751909 -0.0018855118607 -0.0018497420403 -0.0018225287616 -0.0018041883854 -0.0017948274163 
-0.0017942702324 -0.0018020587944 -0.0041651951358 -0.0041728258461 -0.0041766751408 -0.0041769742961 -0.0041738235664 -0.0041672419616 -0.0041572105896 
-0.0041436955634 -0.0041266573039 -0.0041060541957 -0.0040818442729 -0.0040539865288 -0.0040224424624 -0.0039871773147 -0.0039481616375 -0.0039053723546 
-0.0038587941318 -0.0038084219931 -0.0037542641194 -0.0036963422484 -0.003634696776 -0.0035693880883 -0.0035005006682 -0.0034281456716 -0.0033524655938 
-0.0032736393583 -0.0031918860945 -0.0031074654324 -0.0030207425668 -0.0029320859644 -0.0028419201595 -0.0027507297415 -0.0026590610635 -0.0025675217522 
-0.0024767791422 -0.0023875569053 -0.002300628916 -0.0022168104707 -0.0021369468959 -0.002061899431 -0.0019925282538 -0.0019296734566 -0.001874134377 
-0.0018266471337 -0.0017878594166 -0.0017582980412 -0.0017383202179 -0.0017280410239 -0.0017272559974 -0.0017354519415 -0.0042099149495 -0.00421789043 
-0.0042220115293 -0.0042225290337 -0.0042195538528 -0.0042131076069 -0.0042031692093 -0.0041897000103 -0.0041726540878 -0.0041519824153 -0.004127634558 
-0.0040995602461 -0.0040677106232 -0.0040320394229 -0.003992504128 -0.0039490668735 -0.0039016970184 -0.0038503735388 -0.0037950853123 -0.0037358364345 
-0.0036726465458 -0.0036055560959 -0.0035346276358 -0.0034599517245 -0.003381652177 -0.0032998899179 -0.0032148679551 -0.0031268242807 -0.0030361278213 
-0.0029431436383 -0.0028483014411 -0.002752098798 -0.0026551036959 -0.002557956033 -0.0024613668867 -0.0023661156498 -0.0022730446381 -0.0021830502101 
-0.0020970701984 -0.0020160677064 -0.0019410119901 -0.0018728560113 -0.0018125112648 -0.0017608204705 -0.0017185266432 -0.0016862336524 -0.0016643481486 
-0.0016529954517 -0.0016519358603 -0.001660589407 -0.0042589973276 -0.0042673509182 -0.0042717716327 -0.0042725325267 -0.0042697568642 -0.0042634696123 
-0.0042536477541 -0.004240247603 -0.0042232167793 -0.004202498429 -0.0041780334435 -0.0041497617821 -0.0041176234595 -0.004081559576 -0.0040415129524 
-0.0039974304198 -0.0039492647335 -0.0038969750381 -0.0038405315279 -0.0037799156066 -0.0037151254271 -0.0036461758508 -0.0035731058342 -0.0034959827561 
-0.0034149064889 -0.003330015161 -0.0032414911732 -0.0031495427338 -0.0030545389026 -0.0029568393234 -0.0028568749091 -0.0027551530268 -0.0026522616742 
-0.002548872183 -0.0024457410363 -0.0023437086774 -0.0022436940791 -0.0021466856539 -0.0020537281473 -0.0019659049634 -0.0018843151085 -0.0018100463246 
-0.001744144975 -0.0016875827374 -0.0016412187102 -0.0016057508018 -0.0015816454074 -0.001569039735 -0.0015676510321 -0.0015768183578 -0.0043125542578 
-0.0043213213535 -0.0043260716584 -0.0043271037187 -0.0043245550571 -0.0043184550629 -0.0043087788035 -0.0042954777428 -0.0042784927309 -0.0042577590698 
-0.0042332086846 -0.0042047711638 -0.0041723745727 -0.0041359460018 -0.0040954133443 -0.0040507067801 -0.0040017595682 -0.0039485112975 -0.0038909089312 
-0.0038289111355 -0.0037624879711 -0.0036916288061 -0.0036163453417 -0.0035366761199 -0.0034526920472 -0.0033645027715 -0.0032722637899 -0.0031761515962 
-0.0030765206277 -0.0029737248484 -0.002868191763 -0.0027604327004 -0.0026510508177 -0.0025407480022 -0.0024303279734 -0.0023206959743 -0.0022128555308 
-0.0021079002004 -0.0020069988781 -0.0019113750143 -0.0018222808682 -0.0017409658331 -0.0016686396613 -0.0016064310964 -0.0015553406022 -0.0015161808641 
-0.0014894920437 -0.0014754259769 -0.0014736461035 -0.0014833914848 -0.00437070773 -0.0043799259038 -0.0043850380301 -0.0043863717242 -0.0043840812204 
-0.0043782012232 -0.0043687054023 -0.0043555403644 -0.0043386402534 -0.0043179324795 -0.0042933396417 -0.0042647803397 -0.0042321697483 -0.0041954207442 
-0.0041544451315 -0.00410915457 -0.004059462302 -0.0040052854432 -0.0039465471926 -0.0038831773768 -0.0038151192282 -0.0037423319535 -0.003664795135 
-0.0035825133382 -0.0034955223019 -0.0034038953364 -0.0033077520253 -0.0032072616105 -0.0031026989274 -0.0029944404153 -0.0028828962417 -0.0027685735647 
-0.0026520862797 -0.0025341627884 -0.0024156528798 -0.0022975312237 -0.0021808949026 -0.0020669545087 -0.0019570200061 -0.0018524791766 -0.0017547668417 
-0.0016653263663 -0.0015855647682 -0.0015168027135 -0.0014602161557 -0.0014167609708 -0.0013870671997 -0.0013713019071 -0.0013690601656 -0.0013794576331 
-0.0044335900799 -0.0044432993464 -0.0044488078355 -0.0044504764584 -0.0044484787716 -0.0044428560692 -0.0044335812064 -0.0044205960776 -0.0044038283753 
-0.0043831974989 -0.004358616317 -0.0043299919942 -0.0042972265742 -0.0042602179605 -0.0042188608424 -0.0041730471265 -0.0041226691295 -0.0040676198416 
-0.0040077944894 -0.0039430951232 -0.0038734337561 -0.0037987355393 -0.0037189426848 -0.0036340202067 -0.0035439625515 -0.003448801722 -0.0033486155898 
-0.0032435400858 -0.0031337839439 -0.0030197201899 -0.002901735692 -0.0027803241909 -0.0026561006815 -0.0025298156226 -0.0024023641834 -0.0022747910279 
-0.0021482911 -0.0020242056097 -0.0019040073467 -0.0017892750981 -0.0016816584535 -0.0015828339261 -0.0014944520614 -0.0014180727886 -0.0013550889771 
-0.0013066313028 -0.0012734392459 -0.0012556971514 -0.0012529132502 -0.0012640492595 -0.004501344665 -0.004511587871 -0.0045175297746 -0.0045195693463 
-0.0045179024486 -0.0045125786706 -0.0045035706342 -0.0044908160975 -0.0044742364745 -0.0044537429741 -0.0044292386892 -0.0044006191574 -0.0043677729166 
-0.0043305825913 -0.0042889241391 -0.0042426705197 -0.0041916906259 -0.0041358513951 -0.0040750200837 -0.0040090682766 -0.0039378731397 -0.0038613210201 
-0.0037793118949 -0.0036917663844 -0.00359863143 -0.0034998894618 -0.0033955704993 -0.003285757277 -0.0031705828863 -0.003050406627 -0.0029255760696 
-0.0027965594976 -0.0026639654406 -0.0025285565371 -0.0023912636278 -0.0022531987636 -0.0021156626158 -0.0019801396939 -0.0018482839929 -0.0017218947092 
-0.0016028800138 -0.0014932036517 -0.0013948142382 -0.0013095645165 -0.0012391164467 -0.0011848199074 -0.0011475494118 -0.0011275065385 -0.0011240879116 
-0.0011360635093 -0.0045741270339 -0.0045849503401 -0.0045913652622 -0.0045938141911 -0.004592519072 -0.0045875396522 -0.004578849384 -0.0045663824824 
-0.0045500541262 -0.0045297675802 -0.0045054162149 -0.0044768837774 -0.004444045758 -0.0044067677315 -0.0043649089409 -0.0043183207432 -0.0042668484809 
-0.004210332116 -0.0041486104488 -0.0040815208046 -0.0040089021372 -0.0039305977145 -0.003846462478 -0.0037563652689 -0.0036601991262 -0.0035578914423 
-0.0034494076502 -0.0033347701042 -0.0032140068016 -0.0030874563596 -0.002955413476 -0.0028183078676 -0.0026767209116 -0.0025314095937 -0.002383331641 
-0.0022336636848 -0.0020838095539 -0.0019354038622 -0.0017903064593 -0.0016505794742 -0.0015184398464 -0.0013961932479 -0.0012861542899 -0.0011905435178 
-0.0011113602781 -0.0010502265197 -0.0010081845211 -0.00098545689208 -0.00098129797178 -0.00099423498687 -0.0046521065351 -0.0046635598312 -0.0046704897786 
-0.0046733886225 -0.004672508782 -0.0046679224708 -0.0046596053026 -0.0046474883834 -0.004631481149 -0.0046114793653 -0.0045873666104 -0.0045590160012 
-0.0045262883091 -0.0044890346763 -0.0044470956308 -0.0044003017156 -0.0043484737535 -0.0042914257999 -0.0042289647605 -0.0041608918616 -0.0040870042121 
-0.0040071015333 -0.0039209855102 -0.0038284701544 -0.0037293890558 -0.0036235981515 -0.0035109936677 -0.003391515412 -0.0032650676178 -0.0031319544847 
-0.0029924009441 -0.002846769292 -0.0026955919828 -0.0025396049317 -0.0023797743428 -0.0022173211586 -0.0020537477053 -0.001890854403 -0.0017307344267 
-0.0015757454873 -0.0014284653359 -0.001291621091 -0.0011679803606 -0.0010602182112 -0.00097076020314 -0.00090158090905 -0.00085393900323 -0.00082807798638 
-0.00082306354358 -0.00083711083919 -0.0047354683442 -0.0047476057593 -0.0047550951933 -0.0047584862548 -0.0047580669171 -0.0047539248205 -0.004746039104 
-0.0047343385724 -0.0047187277822 -0.0046990950798 -0.0046753158497 -0.0046472514366 -0.0046147504132 -0.0045776489336 -0.0045357695991 -0.0044889221324 
-0.0044369042368 -0.0043795022202 -0.0043164898627 -0.0042476301612 -0.0041726794781 -0.0040913864013 -0.0040034993962 -0.0039087723377 -0.0038069658576 
-0.0036978611924 -0.0035812625709 -0.0034570178689 -0.0033248970564 -0.0031851325501 -0.0030378510192 -0.0028833289341 -0.0027220256934 -0.0025546205194 
-0.0023820540635 -0.0022055769817 -0.002026786997 -0.0018476475302 -0.001670494704 -0.0014980274401 -0.0013332562012 -0.0011794082628 -0.0010398074837 
-0.00091771442262 -0.00081611118969 -0.00073742571428 -0.00068318951961 -0.00065366732608 -0.00064767535272 -0.00066302236042 -0.0048244163529 -0.0048372970221 
-0.0048453927394 -0.0048493192308 -0.004849406273 -0.0048457603945 -0.0048383658841 -0.0048271505917 -0.0048120146785 -0.0047928407973 -0.0047694959428 
-0.0047418315699 -0.0047096853621 -0.004672878826 -0.0046312179738 -0.0045844928413 -0.0045324784037 -0.0044749317637 -0.0044115939787 -0.0043421909098 