# vtk DataFile Version 4.1
vtk output
ASCII
DATASET STRUCTURED_GRID
DIMENSIONS 51 51 1
POINTS 2601 float
0 0 0 0.02 0 0 0.04 0 0 
0.06 0 0 0.08 0 0 0.1 0 0 
0.12 0 0 0.14 0 0 0.16 0 0 
0.18 0 0 0.2 0 0 0.22 0 0 
0.24 0 0 0.26 0 0 0.28 0 0 
0.3 0 0 0.32 0 0 0.34 0 0 
0.36 0 0 0.38 0 0 0.4 0 0 
0.42 0 0 0.44 0 0 0.46 0 0 
0.48 0 0 0.5 0 0 0.52 0 0 
0.54 0 0 0.56 0 0 0.58 0 0 
0.6 0 0 0.62 0 0 0.64 0 0 
0.66 0 0 0.68 0 0 0.7 0 0 
0.72 0 0 0.74 0 0 0.76 0 0 
0.78 0 0 0.8 0 0 0.82 0 0 
0.84 0 0 0.86 0 0 0.88 0 0 
0.9 0 0 0.92 0 0 0.94 0 0 
0.96 0 0 0.98 0 0 1 0 0 
0 0.02 0 0.02 0.02 0 0.04 0.02 0 
0.06 0.02 0 0.08 0.02 0 0.1 0.02 0 
0.12 0.02 0 0.14 0.02 0 0.16 0.02 0 
0.18 0.02 0 0.2 0.02 0 0.22 0.02 0 
0.24 0.02 0 0.26 0.02 0 0.28 0.02 0 
0.3 0.02 0 0.32 0.02 0 0.34 0.02 0 
0.36 0.02 0 0.38 0.02 0 0.4 0.02 0 
0.42 0.02 0 0.44 0.02 0 0.46 0.02 0 
0.48 0.02 0 0.5 0.02 0 0.52 0.02 0 
0.54 0.02 0 0.56 0.02 0 0.58 0.02 0 
0.6 0.02 0 0.62 0.02 0 0.64 0.02 0 
0.66 0.02 0 0.68 0.02 0 0.7 0.02 0 
0.72 0.02 0 0.74 0.02 0 0.76 0.02 0 
0.78 0.02 0 0.8 0.02 0 0.82 0.02 0 
0.84 0.02 0 0.86 0.02 0 0.88 0.02 0 
0.9 0.02 0 0.92 0.02 0 0.94 0.02 0 
0.96 0.02 0 0.98 0.02 0 1 0.02 0 
0 0.04 0 0.02 0.04 0 0.04 0.04 0 
0.06 0.04 0 0.08 0.04 0 0.1 0.04 0 
0.12 0.04 0 0.14 0.04 0 0.16 0.04 0 
0.18 0.04 0 0.2 0.04 0 0.22 0.04 0 
0.24 0.04 0 0.26 0.04 0 0.28 0.04 0 
0.3 0.04 0 0.32 0.04 0 0.34 0.04 0 
0.36 0.04 0 0.38 0.04 0 0.4 0.04 0 
0.42 0.04 0 0.44 0.04 0 0.46 0.04 0 
0.48 0.04 0 0.5 0.04 0 0.52 0.04 0 
0.54 0.04 0 0.56 0.04 0 0.58 0.04 0 
0.6 0.04 0 0.62 0.04 0 0.64 0.04 0 
0.66 0.04 0 0.68 0.04 0 0.7 0.04 0 
0.72 0.04 0 0.74 0.04 0 0.76 0.04 0 
0.78 0.04 0 0.8 0.04 0 0.82 0.04 0 
0.84 0.04 0 0.86 0.04 0 0.88 0.04 0 
0.9 0.04 0 0.92 0.04 0 0.94 0.04 0 
0.96 0.04 0 0.98 0.04 0 1 0.04 0 
0 0.06 0 0.02 0.06 0 0.04 0.06 0 
0.06 0.06 0 0.08 0.06 0 0.1 0.06 0 
0.12 0.06 0 0.14 0.06 0 0.16 0.06 0 
0.18 0.06 0 0.2 0.06 0 0.22 0.06 0 
0.24 0.06 0 0.26 0.06 0 0.28 0.06 0 
0.3 0.06 0 0.32 0.06 0 0.34 0.06 0 
0.36 0.06 0 0.38 0.06 0 0.4 0.06 0 
0.42 0.06 0 0.44 0.06 0 0.46 0.06 0 
0.48 0.06 0 0.5 0.06 0 0.52 0.06 0 
0.54 0.06 0 0.56 0.06 0 0.58 0.06 0 
0.6 0.06 0 0.62 0.06 0 0.64 0.06 0 
0.66 0.06 0 0.68 0.06 0 0.7 0.06 0 
0.72 0.06 0 0.74 0.06 0 0.76 0.06 0 
0.78 0.06 0 0.8 0.06 0 0.82 0.06 0 
0.84 0.06 0 0.86 0.06 0 0.88 0.06 0 
0.9 0.06 0 0.92 0.06 0 0.94 0.06 0 
0.96 0.06 0 0.98 0.06 0 1 0.06 0 
0 0.08 0 0.02 0.08 0 0.04 0.08 0 
0.06 0.08 0 0.08 0.08 0 0.1 0.08 0 
0.12 0.08 0 0.14 0.08 0 0.16 0.08 0 
0.18 0.08 0 0.2 0.08 0 0.22 0.08 0 
0.24 0.08 0 0.26 0.08 0 0.28 0.08 0 
0.3 0.08 0 0.32 0.08 0 0.34 0.08 0 
0.36 0.08 0 0.38 0.08 0 0.4 0.08 0 
0.42 0.08 0 0.44 0.08 0 0.46 0.08 0 
0.48 0.08 0 0.5 0.08 0 0.52 0.08 0 
0.54 0.08 0 0.56 0.08 0 0.58 0.08 0 
0.6 0.08 0 0.62 0.08 0 0.64 0.08 0 
0.66 0.08 0 0.68 0.08 0 0.7 0.08 0 
0.72 0.08 0 0.74 0.08 0 0.76 0.08 0 
0.78 0.08 0 0.8 0.08 0 0.82 0.08 0 
0.84 0.08 0 0.86 0.08 0 0.88 0.08 0 
0.9 0.08 0 0.92 0.08 0 0.94 0.08 0 
0.96 0.08 0 0.98 0.08 0 1 0.08 0 
0 0.1 0 0.02 0.1 0 0.04 0.1 0 
0.06 0.1 0 0.08 0.1 0 0.1 0.1 0 
0.12 0.1 0 0.14 0.1 0 0.16 0.1 0 
0.18 0.1 0 0.2 0.1 0 0.22 0.1 0 
0.24 0.1 0 0.26 0.1 0 0.28 0.1 0 
0.3 0.1 0 0.32 0.1 0 0.34 0.1 0 
0.36 0.1 0 0.38 0.1 0 0.4 0.1 0 
0.42 0.1 0 0.44 0.1 0 0.46 0.1 0 
0.48 0.1 0 0.5 0.1 0 0.52 0.1 0 
0.54 0.1 0 0.56 0.1 0 0.58 0.1 0 
0.6 0.1 0 0.62 0.1 0 0.64 0.1 0 
0.66 0.1 0 0.68 0.1 0 0.7 0.1 0 
0.72 0.1 0 0.74 0.1 0 0.76 0.1 0 
0.78 0.1 0 0.8 0.1 0 0.82 0.1 0 
0.84 0.1 0 0.86 0.1 0 0.88 0.1 0 
0.9 0.1 0 0.92 0.1 0 0.94 0.1 0 
0.96 0.1 0 0.98 0.1 0 1 0.1 0 
0 0.12 0 0.02 0.12 0 0.04 0.12 0 
0.06 0.12 0 0.08 0.12 0 0.1 0.12 0 
0.12 0.12 0 0.14 0.12 0 0.16 0.12 0 
0.18 0.12 0 0.2 0.12 0 0.22 0.12 0 
0.24 0.12 0 0.26 0.12 0 0.28 0.12 0 
0.3 0.12 0 0.32 0.12 0 0.34 0.12 0 
0.36 0.12 0 0.38 0.12 0 0.4 0.12 0 
0.42 0.12 0 0.44 0.12 0 0.46 0.12 0 
0.48 0.12 0 0.5 0.12 0 0.52 0.12 0 
0.54 0.12 0 0.56 0.12 0 0.58 0.12 0 
0.6 0.12 0 0.62 0.12 0 0.64 0.12 0 
0.66 0.12 0 0.68 0.12 0 0.7 0.12 0 
0.72 0.12 0 0.74 0.12 0 0.76 0.12 0 
0.78 0.12 0 0.8 0.12 0 0.82 0.12 0 
0.84 0.12 0 0.86 0.12 0 0.88 0.12 0 
0.9 0.12 0 0.92 0.12 0 0.94 0.12 0 
0.96 0.12 0 0.98 0.12 0 1 0.12 0 
0 0.14 0 0.02 0.14 0 0.04 0.14 0 
0.06 0.14 0 0.08 0.14 0 0.1 0.14 0 
0.12 0.14 0 0.14 0.14 0 0.16 0.14 0 
0.18 0.14 0 0.2 0.14 0 0.22 0.14 0 
0.24 0.14 0 0.26 0.14 0 0.28 0.14 0 
0.3 0.14 0 0.32 0.14 0 0.34 0.14 0 
0.36 0.14 0 0.38 0.14 0 0.4 0.14 0 
0.42 0.14 0 0.44 0.14 0 0.46 0.14 0 
0.48 0.14 0 0.5 0.14 0 0.52 0.14 0 
0.54 0.14 0 0.56 0.14 0 0.58 0.14 0 
0.6 0.14 0 0.62 0.14 0 0.64 0.14 0 
0.66 0.14 0 0.68 0.14 0 0.7 0.14 0 
0.72 0.14 0 0.74 0.14 0 0.76 0.14 0 
0.78 0.14 0 0.8 0.14 0 0.82 0.14 0 
0.84 0.14 0 0.86 0.14 0 0.88 0.14 0 
0.9 0.14 0 0.92 0.14 0 0.94 0.14 0 
0.96 0.14 0 0.98 0.14 0 1 0.14 0 
0 0.16 0 0.02 0.16 0 0.04 0.16 0 
0.06 0.16 0 0.08 0.16 0 0.1 0.16 0 
0.12 0.16 0 0.14 0.16 0 0.16 0.16 0 
0.18 0.16 0 0.2 0.16 0 0.22 0.16 0 
0.24 0.16 0 0.26 0.16 0 0.28 0.16 0 
0.3 0.16 0 0.32 0.16 0 0.34 0.16 0 
0.36 0.16 0 0.38 0.16 0 0.4 0.16 0 
0.42 0.16 0 0.44 0.16 0 0.46 0.16 0 
0.48 0.16 0 0.5 0.16 0 0.52 0.16 0 
0.54 0.16 0 0.56 0.16 0 0.58 0.16 0 
0.6 0.16 0 0.62 0.16 0 0.64 0.16 0 
0.66 0.16 0 0.68 0.16 0 0.7 0.16 0 
0.72 0.16 0 0.74 0.16 0 0.76 0.16 0 
0.78 0.16 0 0.8 0.16 0 0.82 0.16 0 
0.84 0.16 0 0.86 0.16 0 0.88 0.16 0 
0.9 0.16 0 0.92 0.16 0 0.94 0.16 0 
0.96 0.16 0 0.98 0.16 0 1 0.16 0 
0 0.18 0 0.02 0.18 0 0.04 0.18 0 
0.06 0.18 0 0.08 0.18 0 0.1 0.18 0 
0.12 0.18 0 0.14 0.18 0 0.16 0.18 0 
0.18 0.18 0 0.2 0.18 0 0.22 0.18 0 
0.24 0.18 0 0.26 0.18 0 0.28 0.18 0 
0.3 0.18 0 0.32 0.18 0 0.34 0.18 0 
0.36 0.18 0 0.38 0.18 0 0.4 0.18 0 
0.42 0.18 0 0.44 0.18 0 0.46 0.18 0 
0.48 0.18 0 0.5 0.18 0 0.52 0.18 0 
0.54 0.18 0 0.56 0.18 0 0.58 0.18 0 
0.6 0.18 0 0.62 0.18 0 0.64 0.18 0 
0.66 0.18 0 0.68 0.18 0 0.7 0.18 0 
0.72 0.18 0 0.74 0.18 0 0.76 0.18 0 
0.78 0.18 0 0.8 0.18 0 0.82 0.18 0 
0.84 0.18 0 0.86 0.18 0 0.88 0.18 0 
0.9 0.18 0 0.92 0.18 0 0.94 0.18 0 
0.96 0.18 0 0.98 0.18 0 1 0.18 0 
0 0.2 0 0.02 0.2 0 0.04 0.2 0 
0.06 0.2 0 0.08 0.2 0 0.1 0.2 0 
0.12 0.2 0 0.14 0.2 0 0.16 0.2 0 
0.18 0.2 0 0.2 0.2 0 0.22 0.2 0 
0.24 0.2 0 0.26 0.2 0 0.28 0.2 0 
0.3 0.2 0 0.32 0.2 0 0.34 0.2 0 
0.36 0.2 0 0.38 0.2 0 0.4 0.2 0 
0.42 0.2 0 0.44 0.2 0 0.46 0.2 0 
0.48 0.2 0 0.5 0.2 0 0.52 0.2 0 
0.54 0.2 0 0.56 0.2 0 0.58 0.2 0 
0.6 0.2 0 0.62 0.2 0 0.64 0.2 0 
0.66 0.2 0 0.68 0.2 0 0.7 0.2 0 
0.72 0.2 0 0.74 0.2 0 0.76 0.2 0 
0.78 0.2 0 0.8 0.2 0 0.82 0.2 0 
0.84 0.2 0 0.86 0.2 0 0.88 0.2 0 
0.9 0.2 0 0.92 0.2 0 0.94 0.2 0 
0.96 0.2 0 0.98 0.2 0 1 0.2 0 
0 0.22 0 0.02 0.22 0 0.04 0.22 0 
0.06 0.22 0 0.08 0.22 0 0.1 0.22 0 
0.12 0.22 0 0.14 0.22 0 0.16 0.22 0 
0.18 0.22 0 0.2 0.22 0 0.22 0.22 0 
0.24 0.22 0 0.26 0.22 0 0.28 0.22 0 
0.3 0.22 0 0.32 0.22 0 0.34 0.22 0 
0.36 0.22 0 0.38 0.22 0 0.4 0.22 0 
0.42 0.22 0 0.44 0.22 0 0.46 0.22 0 
0.48 0.22 0 0.5 0.22 0 0.52 0.22 0 
0.54 0.22 0 0.56 0.22 0 0.58 0.22 0 
0.6 0.22 0 0.62 0.22 0 0.64 0.22 0 
0.66 0.22 0 0.68 0.22 0 0.7 0.22 0 
0.72 0.22 0 0.74 0.22 0 0.76 0.22 0 
0.78 0.22 0 0.8 0.22 0 0.82 0.22 0 
0.84 0.22 0 0.86 0.22 0 0.88 0.22 0 
0.9 0.22 0 0.92 0.22 0 0.94 0.22 0 
0.96 0.22 0 0.98 0.22 0 1 0.22 0 
0 0.24 0 0.02 0.24 0 0.04 0.24 0 
0.06 0.24 0 0.08 0.24 0 0.1 0.24 0 
0.12 0.24 0 0.14 0.24 0 0.16 0.24 0 
0.18 0.24 0 0.2 0.24 0 0.22 0.24 0 
0.24 0.24 0 0.26 0.24 0 0.28 0.24 0 
0.3 0.24 0 0.32 0.24 0 0.34 0.24 0 
0.36 0.24 0 0.38 0.24 0 0.4 0.24 0 
0.42 0.24 0 0.44 0.24 0 0.46 0.24 0 
0.48 0.24 0 0.5 0.24 0 0.52 0.24 0 
0.54 0.24 0 0.56 0.24 0 0.58 0.24 0 
0.6 0.24 0 0.62 0.24 0 0.64 0.24 0 
0.66 0.24 0 0.68 0.24 0 0.7 0.24 0 
0.72 0.24 0 0.74 0.24 0 0.76 0.24 0 
0.78 0.24 0 0.8 0.24 0 0.82 0.24 0 
0.84 0.24 0 0.86 0.24 0 0.88 0.24 0 
0.9 0.24 0 0.92 0.24 0 0.94 0.24 0 
0.96 0.24 0 0.98 0.24 0 1 0.24 0 
0 0.26 0 0.02 0.26 0 0.04 0.26 0 
0.06 0.26 0 0.08 0.26 0 0.1 0.26 0 
0.12 0.26 0 0.14 0.26 0 0.16 0.26 0 
0.18 0.26 0 0.2 0.26 0 0.22 0.26 0 
0.24 0.26 0 0.26 0.26 0 0.28 0.26 0 
0.3 0.26 0 0.32 0.26 0 0.34 0.26 0 
0.36 0.26 0 0.38 0.26 0 0.4 0.26 0 
0.42 0.26 0 0.44 0.26 0 0.46 0.26 0 
0.48 0.26 0 0.5 0.26 0 0.52 0.26 0 
0.54 0.26 0 0.56 0.26 0 0.58 0.26 0 
0.6 0.26 0 0.62 0.26 0 0.64 0.26 0 
0.66 0.26 0 0.68 0.26 0 0.7 0.26 0 
0.72 0.26 0 0.74 0.26 0 0.76 0.26 0 
0.78 0.26 0 0.8 0.26 0 0.82 0.26 0 
0.84 0.26 0 0.86 0.26 0 0.88 0.26 0 
0.9 0.26 0 0.92 0.26 0 0.94 0.26 0 
0.96 0.26 0 0.98 0.26 0 1 0.26 0 
0 0.28 0 0.02 0.28 0 0.04 0.28 0 
0.06 0.28 0 0.08 0.28 0 0.1 0.28 0 
0.12 0.28 0 0.14 0.28 0 0.16 0.28 0 
0.18 0.28 0 0.2 0.28 0 0.22 0.28 0 
0.24 0.28 0 0.26 0.28 0 0.28 0.28 0 
0.3 0.28 0 0.32 0.28 0 0.34 0.28 0 
0.36 0.28 0 0.38 0.28 0 0.4 0.28 0 
0.42 0.28 0 0.44 0.28 0 0.46 0.28 0 
0.48 0.28 0 0.5 0.28 0 0.52 0.28 0 
0.54 0.28 0 0.56 0.28 0 0.58 0.28 0 
0.6 0.28 0 0.62 0.28 0 0.64 0.28 0 
0.66 0.28 0 0.68 0.28 0 0.7 0.28 0 
0.72 0.28 0 0.74 0.28 0 0.76 0.28 0 
0.78 0.28 0 0.8 0.28 0 0.82 0.28 0 
0.84 0.28 0 0.86 0.28 0 0.88 0.28 0 
0.9 0.28 0 0.92 0.28 0 0.94 0.28 0 
0.96 0.28 0 0.98 0.28 0 1 0.28 0 
0 0.3 0 0.02 0.3 0 0.04 0.3 0 
0.06 0.3 0 0.08 0.3 0 0.1 0.3 0 
0.12 0.3 0 0.14 0.3 0 0.16 0.3 0 
0.18 0.3 0 0.2 0.3 0 0.22 0.3 0 
0.24 0.3 0 0.26 0.3 0 0.28 0.3 0 
0.3 0.3 0 0.32 0.3 0 0.34 0.3 0 
0.36 0.3 0 0.38 0.3 0 0.4 0.3 0 
0.42 0.3 0 0.44 0.3 0 0.46 0.3 0 
0.48 0.3 0 0.5 0.3 0 0.52 0.3 0 
0.54 0.3 0 0.56 0.3 0 0.58 0.3 0 
0.6 0.3 0 0.62 0.3 0 0.64 0.3 0 
0.66 0.3 0 0.68 0.3 0 0.7 0.3 0 
0.72 0.3 0 0.74 0.3 0 0.76 0.3 0 
0.78 0.3 0 0.8 0.3 0 0.82 0.3 0 
0.84 0.3 0 0.86 0.3 0 0.88 0.3 0 
0.9 0.3 0 0.92 0.3 0 0.94 0.3 0 
0.96 0.3 0 0.98 0.3 0 1 0.3 0 
0 0.32 0 0.02 0.32 0 0.04 0.32 0 
0.06 0.32 0 0.08 0.32 0 0.1 0.32 0 
0.12 0.32 0 0.14 0.32 0 0.16 0.32 0 
0.18 0.32 0 0.2 0.32 0 0.22 0.32 0 
0.24 0.32 0 0.26 0.32 0 0.28 0.32 0 
0.3 0.32 0 0.32 0.32 0 0.34 0.32 0 
0.36 0.32 0 0.38 0.32 0 0.4 0.32 0 
0.42 0.32 0 0.44 0.32 0 0.46 0.32 0 
0.48 0.32 0 0.5 0.32 0 0.52 0.32 0 
0.54 0.32 0 0.56 0.32 0 0.58 0.32 0 
[...]
CELL_DATA 2500
FIELD FieldData 2
pressure 1 2500 double
-0.005089447777 -0.005092631551 -0.0050946732183 -0.0050937441686 -0.0050892046858 -0.0050809443444 -0.0050690114499 -0.0050534635892 -0.0050343306685 
-0.005011618039 -0.0049853171928 -0.0049554143986 -0.0049218963392 -0.0048847539453 -0.0048439853575 -0.0047995985659 -0.0047516140039 -0.0047000671811 
-0.0046450114051 -0.0045865205906 -0.0045246921078 -0.0044596496332 -0.0043915459486 -0.0043205655787 -0.0042469271292 -0.0041708851711 -0.0040927315715 
-0.0040127963233 -0.0039314479959 -0.0038491300333 -0.0037663065275 -0.0036834665205 -0.0036011400726 -0.0035198911754 -0.003440311603 -0.0033630142477 
-0.0032886255652 -0.0032177771319 -0.0031510964737 -0.00308919746 -0.0030326707288 -0.0029820748146 -0.0029379286622 -0.0029007053093 -0.0028708227778 
-0.0028486175385 -0.002834262481 -0.0028275520378 -0.0028274312868 -0.0028311279044 -0.0050862768523 -0.0050894818291 -0.0050906467259 -0.0050889714037 
-0.0050840139952 -0.0050755935189 -0.0050636543952 -0.0050481832623 -0.0050291730842 -0.0050066128789 -0.0049804876604 -0.004950781188 -0.0049174790867 
-0.004880571669 -0.0048400565434 -0.0047959411553 -0.0047482453203 -0.0046970038594 -0.0046422693129 -0.0045841147107 -0.0045226364105 -0.0044579569521 
-0.0043902278372 -0.0043196321601 -0.0042463869683 -0.0041707452315 -0.0040929972933 -0.0040134715573 -0.0039325339931 -0.0038506443424 -0.0037682392965 
-0.003685812703 -0.003603894365 -0.0035230466865 -0.0034438594617 -0.0033669434864 -0.0032929231081 -0.0032224277971 -0.0031560829109 -0.0030944999163 
-0.0030382663631 -0.0029879357488 -0.0029440168227 -0.0029069602419 -0.0028771367284 -0.0028547942222 -0.0028399738818 -0.002832366387 -0.0028311295472 
-0.0028348316346 -0.0050843143313 -0.0050884529701 -0.0050896246787 -0.0050877105387 -0.0050825541611 -0.0050740448592 -0.0050621155893 -0.0050467247574 
-0.0050278422614 -0.0050054423728 -0.0049795012997 -0.0049499973741 -0.0049169123904 -0.0048802334928 -0.0048399553324 -0.0047960823634 -0.0047486313288 
-0.0046976338336 -0.0046431390281 -0.004585216417 -0.0045239587316 -0.0044594848161 -0.0043919424856 -0.0043215112478 -0.0042484048537 -0.0041728735747 
-0.0040952059177 -0.0040157292992 -0.0039348317809 -0.0038529265585 -0.0037704667432 -0.0036879489809 -0.0036059062046 -0.0035249042981 -0.0034455372239 
-0.0033684207605 -0.0032941849888 -0.0032234656904 -0.0031568948471 -0.0030950904293 -0.0030386456158 -0.0029881173805 -0.0029440137286 -0.0029067773934 
-0.002876761324 -0.0028541886216 -0.0028390907767 -0.002831233589 -0.0028300878677 -0.00283499833 -0.0050856112606 -0.0050905883659 -0.0050920399898 
-0.0050901596697 -0.0050849821047 -0.0050764792761 -0.0050646061812 -0.0050493183294 -0.0050305760099 -0.0050083439774 -0.0049825906685 -0.0049532880851 
-0.0049204125575 -0.0048839461414 -0.0048438784394 -0.0048002087867 -0.0047529485897 -0.0047021238744 -0.004647778013 -0.0045899745569 -0.0045288001762 
-0.0044643676564 -0.0043968188472 -0.0043263276579 -0.0042531029648 -0.0041773911904 -0.004099478717 -0.0040196946108 -0.0039384254112 -0.0038560695496 
-0.0037730895309 -0.0036899870055 -0.003607301451 -0.0035256069936 -0.0034455075808 -0.003367630671 -0.0032926195687 -0.00322112452 -0.0031537927148 
-0.0030912573866 -0.0030341261777 -0.0029829686887 -0.0029383026025 -0.0029005767876 -0.0028701483765 -0.0028472500011 -0.0028319464926 -0.0028240941751 
-0.0028233481027 -0.0028293122156 -0.0050910365368 -0.0050965619201 -0.0050983076117 -0.005096570456 -0.005091478152 -0.0050830573855 -0.0050712870503 
-0.0050561288309 -0.0050375408753 -0.0050154826728 -0.0049899164526 -0.0049608078449 -0.0049281267619 -0.0048918487075 -0.0048519565571 -0.0048084425774 
-0.0047613107712 -0.0047105794404 -0.0046562839288 -0.004598479547 -0.0045372446109 -0.0044726835016 -0.0044049300089 -0.0043341505835 -0.0042605472735 
-0.0041843607622 -0.0041058736467 -0.0040254138466 -0.0039433602547 -0.0038601186967 -0.0037761550891 -0.0036919778264 -0.0036081361578 -0.0035252169195 
-0.0034438396657 -0.0033646502024 -0.0032883125764 -0.0032154996458 -0.0031468824088 -0.003083118288 -0.0030248385279 -0.0029726347429 -0.0029270443016 
-0.0028885335132 -0.0028574766173 -0.0028341280456 -0.002818587401 -0.0028107653039 -0.0028103789617 -0.0028170424995 -0.0051008617931 -0.0051067142562 
-0.0051087008146 -0.0051071353068 -0.0051021799586 -0.0050938887854 -0.0050822563785 -0.0050672506642 -0.0050488299333 -0.0050269502664 -0.0050015685342 
-0.0049726439158 -0.0049401391372 -0.0049040219883 -0.0048642670412 -0.0048208577494 -0.0047737887897 -0.0047230686679 -0.0046687225487 -0.0046107952455 
-0.0045493543047 -0.0044844936438 -0.0044163369062 -0.0043450406181 -0.0042707978329 -0.0041938418023 -0.0041144491672 -0.0040329430311 -0.0039496994293 
-0.0038651367349 -0.0037797246235 -0.0036939800742 -0.0036084653584 -0.0035237846115 -0.0034405787588 -0.0033595187394 -0.0032812970465 -0.0032066176518 
-0.0031361844548 -0.0030706884931 -0.0030107941811 -0.0029571247367 -0.0029102466673 -0.0028706526067 -0.0028387408371 -0.0028147888848 -0.0027989190654 
-0.0027910593057 -0.0027909195801 -0.0027980438664 -0.0051151230878 -0.0051211852929 -0.0051233660433 -0.0051219725865 -0.0051171762338 -0.0051090418535 
-0.0050975716256 -0.0050827367795 -0.0050644951138 -0.005042799302 -0.0050176007874 -0.0049888518285 -0.0049565071756 -0.0049205256728 -0.004880872146 
-0.0048375195308 -0.0047904513061 -0.0047396641484 -0.00468517081 -0.0046270031423 -0.0045652159797 -0.0044998903206 -0.004431136743 -0.0043590996866 
-0.0042839613664 -0.0042059452659 -0.004125319813 -0.0040424017451 -0.0039575670129 -0.0038712469307 -0.0037839167709 -0.0036961046024 -0.0036083892578 
-0.0035213968612 -0.0034357956434 -0.0033522888554 -0.0032716057213 -0.0031944904933 -0.0031216897937 -0.0030539385169 -0.0029919446014 -0.0029363729551 
-0.0028878285442 -0.0028468379879 -0.0028138278867 -0.0027890967588 -0.0027727772077 -0.0027647895133 -0.0027648055364 -0.0027722880871 -0.0051337939672 
-0.005140021307 -0.0051423725033 -0.0051411484023 -0.0051365220216 -0.0051285617128 -0.0051172720825 -0.0051026246375 -0.0050845750025 -0.0050630715441 
-0.0050380594994 -0.0050094834456 -0.0049772891028 -0.0049414251272 -0.0049018451051 -0.0048585097891 -0.0048113895293 -0.0047604670068 -0.0047057400927 
-0.0046472259315 -0.0045849636432 -0.0045190181651 -0.0044494849601 -0.0043764938857 -0.0043002132817 -0.0042208545373 -0.0041386762067 -0.0040539875061 
-0.0039671625062 -0.0038786461913 -0.0037889212467 -0.0036985292464 -0.0036080691199 -0.0035181938966 -0.0034296054429 -0.0033430470132 -0.0032592935306 
-0.0031791396263 -0.0031033856142 -0.0030328217245 -0.0029682109856 -0.0029102710968 -0.0028596553461 -0.0028169318946 -0.0027825594119 -0.0027568554789 
-0.0027399539013 -0.002731752338 -0.002731871654 -0.0027396991117 -0.0051568487607 -0.0051632357587 -0.0051657531046 -0.005164701219 -0.0051602548957 
-0.0051524838149 -0.0051413924813 -0.0051269504293 -0.0051091095224 -0.005087812518 -0.0050629974502 -0.0050346001389 -0.0050025560848 -0.0049668024526 
-0.0049272800895 -0.0048839357421 -0.0048367246119 -0.0047856129496 -0.004730582294 -0.0046716314029 -0.004608780767 -0.0045420772262 -0.0044715976774 
-0.0043974539331 -0.0043197978243 -0.0042388258981 -0.0041547842042 -0.0040679729233 -0.0039787598167 -0.0038876048461 -0.0037949990637 -0.0037014997064 
-0.0036077292899 -0.0035143727207 -0.0034221721114 -0.003331919021 -0.003244443998 -0.0031606034372 -0.0030812639001 -0.0030072841999 -0.002939495725 
-0.0028786814991 -0.0028255541008 -0.0027807316347 -0.0027447094305 -0.0027178235688 -0.0027002027554 -0.0026917119387 -0.0026919129334 -0.0027001200071 
-0.0051842773514 -0.0051908365696 -0.0051935284286 -0.0051926586021 -0.005188405949 -0.0051808416884 -0.0051699692197 -0.0051557548505 -0.0051381453025 
-0.0051170765774 -0.0050924783679 -0.0050642765135 -0.0050323951631 -0.004996758584 -0.00495729321 -0.0049139299694 -0.0048666065442 -0.0048152716987 
-0.0047598862442 -0.0047004284032 -0.0046368976504 -0.0045693184831 -0.004497745875 -0.00442227036 -0.0043430233314 -0.0042601829225 -0.0041739797356 
-0.0040847022259 -0.0039927052523 -0.0038984655009 -0.0038024824705 -0.0037053305574 -0.0036076589725 -0.0035101894221 -0.0034137111613 -0.0033190730948 
-0.0032271726213 -0.0031389410365 -0.003055325648 -0.0029772690997 -0.0029056865126 -0.0028414409733 -0.0027853174553 -0.002737994213 -0.0027000091214 
-0.0026717172097 -0.0026532369714 -0.0026443914327 -0.0026446738572 -0.0026533206161 -0.0052160840157 -0.0052228356123 -0.0052257179123 -0.0052250461296 
-0.0052210057767 -0.0052136705504 -0.0052030426965 -0.0051890845347 -0.0051717367336 -0.0051509275225 -0.0051265770523 -0.0050986002468 -0.0050669085486 
-0.0050314118727 -0.0049920206533 -0.0049486477428 -0.0049012127113 -0.0048496418275 -0.0047938742073 -0.0047338643451 -0.0046695863421 -0.0046010393256 
-0.0045282522193 -0.004451289689 -0.0043702585438 -0.0042853141619 -0.0041966673416 -0.004104591188 -0.0040094195613 -0.0039116466668 -0.003811779556 
-0.0037104105907 -0.003608218161 -0.0035059654272 -0.0034044961309 -0.0033047266444 -0.0032076338011 -0.0031142385242 -0.0030255855287 -0.0029427194255 
-0.0028666577868 -0.0027983617891 -0.0027387046459 -0.0026884369488 -0.0026481464007 -0.0026182082781 -0.0025987255326 -0.0025894683505 -0.0025898478901 
-0.0025990104762 -0.0052522832913 -0.0052592506231 -0.0052623439235 -0.0052618912465 -0.0052580870478 -0.0052510087488 -0.0052406576853 -0.0052269918853 
-0.0052099453414 -0.005189437506 -0.0051653783282 -0.0051376705436 -0.0051062117368 -0.005070896106 -0.0050316160296 -0.0049882661536 -0.0049407425846 
-0.0048889494068 -0.0048327998301 -0.0047722210291 -0.0047071587531 -0.0046375819154 -0.0045634888714 -0.0044849136658 -0.0044019329648 -0.0043146739312 
-0.0042233223911 -0.004128131277 -0.0040294046017 -0.0039276506165 -0.0038233832907 -0.0037172126992 -0.0036098481954 -0.0035020990685 -0.0033948710883 
-0.0032891584788 -0.0031860311562 -0.0030866168489 -0.0029920778576 -0.0029035828353 -0.0028222744139 -0.0027492335744 -0.0026854411106 -0.0026317352853 
-0.0025887629216 -0.0025569210119 -0.0025362900519 -0.0025265729711 -0.0025270798715 -0.0025368483653 -0.0052928965212 -0.0053001045406 -0.0053034326053 
-0.005303224344 -0.0052996853145 -0.0052928978956 -0.0052828629798 -0.005269534263 -0.0052528384355 -0.005232685874 -0.0052089752312 -0.0051815962781 
-0.0051504316024 -0.0051153579508 -0.0050762498961 -0.0050329786124 -0.0049854180525 -0.0049334451771 -0.0048769450112 -0.0048158140447 -0.0047499648648 
-0.0046793320574 -0.004603878006 -0.0045236000903 -0.0044385387803 -0.0043487862433 -0.0042544960566 -0.0041558944415 -0.0040532546572 -0.0039470746528 
-0.0038378836332 -0.0037263078261 -0.0036130881479 -0.0034990831325 -0.0033852671055 -0.003272723334 -0.0031626309016 -0.0030562445937 -0.0029548679507 
-0.0028598199259 -0.0027723959221 -0.0026938240685 -0.0026252173374 -0.0025675206908 -0.0025214512094 -0.002487428988 -0.0024655025425 -0.0024552880969 
-0.0024559690714 -0.0024664489427 -0.0053379494731 -0.0053454242799 -0.0053490134064 -0.0053490786673 -0.0053458388039 -0.0053393824358 -0.00532971065 
-0.0053167726928 -0.0053004880649 -0.0052807572673 -0.005257467286 -0.0052304940452 -0.0051997038405 -0.0051649564643 -0.005126104015 -0.0050829959455 
-0.0050354791587 -0.0049834024197 -0.0049266187923 -0.0048649901272 -0.004798391978 -0.0047267189807 -0.0046498917732 -0.004567864693 -0.0044806343648 
-0.0043882496769 -0.0042908227449 -0.0041885397797 -0.0040816695908 -0.0039706230794 -0.0038559834927 -0.0037383844778 -0.0036185950019 -0.0034975242344 
-0.0033762221077 -0.0032558731838 -0.0031377829786 -0.0030233561387 -0.0029140657185 -0.0028114135672 -0.002716882612 -0.0026318824398 -0.0025576889795 
-0.002495378105 -0.0024457511998 -0.002409252294 -0.0023858843652 -0.0023751505062 -0.0023760733153 -0.0023873888302 -0.0053874707319 -0.0053952395159 
-0.0053991182802 -0.0053994896848 -0.0053965877992 -0.0053905089199 -0.0053812548534 -0.0053687709594 -0.0053529691535 -0.005333740073 -0.0053109584713 
-0.0052844856348 -0.0052541721856 -0.0052198573521 -0.0051813723389 -0.0051385409735 -0.0050911826212 -0.0050391142562 -0.0049821541757 -0.0049201258388 
-0.0048528627029 -0.0047802142459 -0.0047020529403 -0.004618282343 -0.0045288469592 -0.0044337435092 -0.0043330329291 -0.0042268534355 -0.0041154361477 
-0.0039991189535 -0.0038785179462 -0.0037542689905 -0.0036271658574 -0.0034981692927 -0.0033684100463 -0.0032391852611 -0.0031119459844 -0.0029882736921 
-0.0028698449817 -0.0027583842849 -0.0026556054434 -0.0025631433112 -0.00248247682 -0.0024148438193 -0.0023611474046 -0.002321855509 -0.0022969064292 
-0.002285654204 -0.002286915149 -0.002299214395 -0.0054414905379 -0.0054495816874 -0.0054537808445 -0.0054544943223 -0.0054519738902 -0.0054463249098 
-0.0054375510344 -0.0054255938809 -0.0054103581261 -0.005391724374 -0.0053695548343 -0.0053436968476 -0.0053139830687 -0.0052802331719 -0.0052422552552 
-0.0051998469659 -0.0051527975599 -0.0051008902807 -0.0050439053679 -0.004981623915 -0.0049138327342 -0.0048403302524 -0.0047609334872 -0.0046754872671 
-0.0045838747893 -0.0044860293602 -0.0043819480623 -0.0042717100433 -0.0041554937512 -0.0040335317368 -0.0039064756703 -0.0037749514249 -0.0036397698119 
-0.0035019391722 -0.0033626741181 -0.0032233958745 -0.0030857214383 -0.0029514393923 -0.0028224702319 -0.0027008102926 -0.0025884594733 -0.0024873343812 
-0.0023991688853 -0.0023254036273 -0.002267065963 -0.0022246463974 -0.0021979914016 -0.002186256771 -0.0021879916862 -0.0022014533709 -0.0055000399428 
-0.0055084832273 -0.0055130356489 -0.0055141302676 -0.0055120390207 -0.005506878276 -0.0054986544442 -0.005487306097 -0.0054727309926 -0.0054547997873 
-0.0054333629586 -0.0054082528876 -0.0053792846886 -0.0053462580866 -0.0053089572492 -0.0052671525871 -0.0052206018094 -0.0051690521822 -0.0051122430377 
-0.0050499095517 -0.0049817870145 -0.0049076164306 -0.0048271525467 -0.0047401726726 -0.0046464873975 -0.0045459531252 -0.0044384917444 -0.0043241071847 
-0.0042029062108 -0.0040749886755 -0.0039410253492 -0.003801617866 -0.0036575821197 -0.0035099670974 -0.003360070662 -0.0032094466325 -0.0030598986373 
-0.0029134566592 -0.0027723332633 -0.0026388573356 -0.0025153848385 -0.0024041878278 -0.0023073242439 -0.002226491996 -0.002162872484 -0.0021169758469 
-0.0020885184194 -0.0020763899384 -0.0020787901692 -0.0020936328644 -0.0055631502457 -0.0055719770294 -0.0055769176677 -0.0055784352716 -0.0055768249469 
-0.0055722160831 -0.0055646191048 -0.0055539704665 -0.0055401614557 -0.0055230537902 -0.005502486232 -0.0054782763708 -0.0054502227515 -0.0054181044314 
-0.0053816819338 -0.005340697523 -0.0052948764498 -0.0052439281638 -0.0051875490375 -0.0051254245308 -0.0050572336166 -0.0049826547799 -0.0049013726345 
-0.0048130870822 -0.0047175229815 -0.0046144502506 -0.004503696202 -0.0043851683618 -0.004258884538 -0.0041248061793 -0.003983544687 -0.0038356831957 
-0.0036820265341 -0.003523648654 -0.0033619234337 -0.0031985420315 -0.003035514108 -0.0028751480638 -0.0027200048047 -0.0025728206841 -0.0024363974114 
-0.0023134593195 -0.0022064812639 -0.0021174929962 -0.0020478709323 -0.0019981401374 -0.0019678327407 -0.0019554780316 -0.001958813641 -0.0019753082583 
-0.0056308527166 -0.0056400962281 -0.0056454619709 -0.0056474468826 -0.0056463726071 -0.0056423838126 -0.0056354966843 -0.0056256465114 -0.0056127193735 
-0.0055965688261 -0.0055770222371 -0.0055538840507 -0.005526936252 -0.0054959382503 -0.0054606269262 -0.005420716624 -0.0053758994085 -0.0053258465896 
-0.0052702087412 -0.0052086191927 -0.0051406971612 -0.0050660524209 -0.0049842921883 -0.004895026842 -0.0047978898455 -0.0046925433703 -0.0045787017031 
-0.0044561541692 -0.0043247895713 -0.0041845340571 -0.0040356504088 -0.0038788308084 -0.0037148237382 -0.0035446999564 -0.0033698921401 -0.0031922253365 
-0.0030139305792 -0.002837633202 -0.0026663071394 -0.0025031875274 -0.0023516361818 -0.00221495811 -0.0020961719296 -0.0019977435662 -0.0019213031376 
-0.0018673847262 -0.0018352597529 -0.0018229640668 -0.0018276169193 -0.0018461039693 -0.0057031786837 -0.0057128743028 -0.0057187038588 -0.0057212023957 
-0.005720721763 -0.0057174248416 -0.0057113354232 -0.0057023892653 -0.0056904686387 -0.0056754196894 -0.0056570601889 -0.0056351825526 -0.005609553459 
-0.0055799138621 -0.0055459780119 -0.005507432925 -0.0054639386825 -0.005415126678 -0.0053606020612 -0.0052999438614 -0.0052327080171 -0.0051584313307 
-0.0050766331417 -0.004986833812 -0.0048885535046 -0.0047813356558 -0.0046647628544 -0.0045384810908 -0.0044022290826 -0.0042558647497 -0.0040992054801 
-0.0039330495131 -0.0037580474132 -0.0035752292357 -0.0033860571101 -0.0031924751341 -0.0029969425614 -0.0028024373708 -0.0026124174246 -0.0024307263204 
-0.0022614322542 -0.002108592735 -0.001975946032 -0.0018665431096 -0.0017823541356 -0.0017239163442 -0.0016901326823 -0.0016783570657 -0.0016848707195 
-0.0017057843423 -0.0057801600603 -0.0057903457043 -0.0057966794531 -0.0057997391143 -0.005799911179 -0.0057973800628 -0.0057921795539 -0.0057842479641 
-0.0057734650927 -0.0057596714538 -0.0057426773642 -0.0057222646362 -0.0056981868397 -0.0056701681951 -0.0056379021551 -0.0056010508248 -0.0055592418674 
-0.0055120696056 -0.0054590928085 -0.0053998359401 -0.0053337901313 -0.0052604114092 -0.0051791356197 -0.0050893726291 -0.0049905260174 -0.0048820018647 
-0.0047632309685 -0.0046336938219 -0.0044929549833 -0.0043407133574 -0.0041763692831 -0.0040006858239 -0.0038141892109 -0.0036178206524 -0.0034130247765 
-0.0032018308188 -0.0029869157943 -0.0027716363633 -0.0025600093168 -0.0023566176787 -0.002166421501 -0.0019944582422 -0.0018454285736 -0.001723183677 
-0.0016301670875 -0.0015669211409 -0.0015318306285 -0.0015212966464 -0.0015304471475 -0.0015543494633 -0.0058618304815 -0.0058725471091 -0.0058794267584 
-0.0058830953351 -0.0058839791572 -0.0058822880606 -0.0058780689509 -0.005871264853 -0.0058617549839 -0.0058493770472 -0.005833935733 -0.0058152049588 
-0.0057929277992 -0.005766814362 -0.0057365408309 -0.00570174539 -0.0056620278716 -0.0056169461532 -0.0055660153257 -0.0055087062007 -0.0054444410024 
-0.005372602642 -0.0052925279395 -0.0052035186696 -0.0051048463511 -0.0049957674238 -0.0048755395097 -0.0047434480917 -0.0045988428362 -0.0044411860454 
-0.0042696602157 -0.00408449609 -0.0038862286977 -0.0036756321637 -0.0034540546863 -0.0032235451956 -0.0029869641304 -0.0027480579595 -0.0025114719378 
-0.0022826706742 -0.0020677308904 -0.0018729711911 -0.0017043981927 -0.0015669844883 -0.0014638595945 -0.0013955918624 -0.0013598394667 -0.0013516569336 
-0.0013645625443 -0.0013921928242 -0.0059482271903 -0.0059595193886 -0.0059669875865 -0.005971311987 -0.0059729647248 -0.0059721859072 -0.0059690390972 
-0.0059634744503 -0.005955373863 -0.0059445746446 -0.0059308787407 -0.0059140556993 -0.0058938410917 -0.0058699355029 -0.0058420000631 -0.0058096546842 
-0.005772473923 -0.0057299839894 -0.0056816595813 -0.0056269178278 -0.0055651211099 -0.0054955717665 -0.005417512199 -0.0053301285001 -0.0052325552117 
-0.0051238846923 -0.0050031832455 -0.0048695144974 -0.0047219688435 -0.0045597048729 -0.004381961162 -0.0041876712951 -0.0039777009187 -0.0037524973139 
-0.0035131987955 -0.0032617788597 -0.0030012051761 -0.0027355791916 -0.0024702161051 -0.0022116122966 -0.0019672372787 -0.001745087009 -0.0015529514675 
-0.0013973993462 -0.0012825892687 -0.0012091880812 -0.001173848641 -0.0011697048357 -0.0011879867047 -0.0012203349164 -0.0060393939021 -0.0060513105785 
-0.006059410442 -0.0060644351336 -0.0060669097662 -0.0060671105607 -0.006065121534 -0.0060609038583 -0.0060543451953 -0.0060452855821 -0.0060335282977 
-0.0060188418876 -0.0060009597197 -0.0059795761337 -0.0059543433578 -0.0059248675506 -0.0058907038896 -0.0058513525354 -0.0058062513154 -0.0057547730776 