# vtk DataFile Version 4.1
vtk output
ASCII
DATASET STRUCTURED_GRID
DIMENSIONS 51 51 1
POINTS 2601 float
0 0 0 0.02 0 0 0.04 0 0 
0.06 0 0 0.08 0 0 0.1 0 0 
0.12 0 0 0.14 0 0 0.16 0 0 
0.18 0 0 0.2 0 0 0.22 0 0 
0.24 0 0 0.26 0 0 0.28 0 0 
0.3 0 0 0.32 0 0 0.34 0 0 
0.36 0 0 0.38 0 0 0.4 0 0 
0.42 0 0 0.44 0 0 0.46 0 0 
0.48 0 0 0.5 0 0 0.52 0 0 
0.54 0 0 0.56 0 0 0.58 0 0 
0.6 0 0 0.62 0 0 0.64 0 0 
0.66 0 0 0.68 0 0 0.7 0 0 
0.72 0 0 0.74 0 0 0.76 0 0 
0.78 0 0 0.8 0 0 0.82 0 0 
0.84 0 0 0.86 0 0 0.88 0 0 
0.9 0 0 0.92 0 0 0.94 0 0 
0.96 0 0 0.98 0 0 1 0 0 
0 0.02 0 0.02 0.02 0 0.04 0.02 0 
0.06 0.02 0 0.08 0.02 0 0.1 0.02 0 
0.12 0.02 0 0.14 0.02 0 0.16 0.02 0 
0.18 0.02 0 0.2 0.02 0 0.22 0.02 0 
0.24 0.02 0 0.26 0.02 0 0.28 0.02 0 
0.3 0.02 0 0.32 0.02 0 0.34 0.02 0 
0.36 0.02 0 0.38 0.02 0 0.4 0.02 0 
0.42 0.02 0 0.44 0.02 0 0.46 0.02 0 
0.48 0.02 0 0.5 0.02 0 0.52 0.02 0 
0.54 0.02 0 0.56 0.02 0 0.58 0.02 0 
0.6 0.02 0 0.62 0.02 0 0.64 0.02 0 
0.66 0.02 0 0.68 0.02 0 0.7 0.02 0 
0.72 0.02 0 0.74 0.02 0 0.76 0.02 0 
0.78 0.02 0 0.8 0.02 0 0.82 0.02 0 
0.84 0.02 0 0.86 0.02 0 0.88 0.02 0 
0.9 0.02 0 0.92 0.02 0 0.94 0.02 0 
0.96 0.02 0 0.98 0.02 0 1 0.02 0 
0 0.04 0 0.02 0.04 0 0.04 0.04 0 
0.06 0.04 0 0.08 0.04 0 0.1 0.04 0 
0.12 0.04 0 0.14 0.04 0 0.16 0.04 0 
0.18 0.04 0 0.2 0.04 0 0.22 0.04 0 
0.24 0.04 0 0.26 0.04 0 0.28 0.04 0 
0.3 0.04 0 0.32 0.04 0 0.34 0.04 0 
0.36 0.04 0 0.38 0.04 0 0.4 0.04 0 
0.42 0.04 0 0.44 0.04 0 0.46 0.04 0 
0.48 0.04 0 0.5 0.04 0 0.52 0.04 0 
0.54 0.04 0 0.56 0.04 0 0.58 0.04 0 
0.6 0.04 0 0.62 0.04 0 0.64 0.04 0 
0.66 0.04 0 0.68 0.04 0 0.7 0.04 0 
0.72 0.04 0 0.74 0.04 0 0.76 0.04 0 
0.78 0.04 0 0.8 0.04 0 0.82 0.04 0 
0.84 0.04 0 0.86 0.04 0 0.88 0.04 0 
0.9 0.04 0 0.92 0.04 0 0.94 0.04 0 
0.96 0.04 0 0.98 0.04 0 1 0.04 0 
0 0.06 0 0.02 0.06 0 0.04 0.06 0 
0.06 0.06 0 0.08 0.06 0 0.1 0.06 0 
0.12 0.06 0 0.14 0.06 0 0.16 0.06 0 
0.18 0.06 0 0.2 0.06 0 0.22 0.06 0 
0.24 0.06 0 0.26 0.06 0 0.28 0.06 0 
0.3 0.06 0 0.32 0.06 0 0.34 0.06 0 
0.36 0.06 0 0.38 0.06 0 0.4 0.06 0 
0.42 0.06 0 0.44 0.06 0 0.46 0.06 0 
0.48 0.06 0 0.5 0.06 0 0.52 0.06 0 
0.54 0.06 0 0.56 0.06 0 0.58 0.06 0 
0.6 0.06 0 0.62 0.06 0 0.64 0.06 0 
0.66 0.06 0 0.68 0.06 0 0.7 0.06 0 
0.72 0.06 0 0.74 0.06 0 0.76 0.06 0 
0.78 0.06 0 0.8 0.06 0 0.82 0.06 0 
0.84 0.06 0 0.86 0.06 0 0.88 0.06 0 
0.9 0.06 0 0.92 0.06 0 0.94 0.06 0 
0.96 0.06 0 0.98 0.06 0 1 0.06 0 
0 0.08 0 0.02 0.08 0 0.04 0.08 0 
0.06 0.08 0 0.08 0.08 0 0.1 0.08 0 
0.12 0.08 0 0.14 0.08 0 0.16 0.08 0 
0.18 0.08 0 0.2 0.08 0 0.22 0.08 0 
0.24 0.08 0 0.26 0.08 0 0.28 0.08 0 
0.3 0.08 0 0.32 0.08 0 0.34 0.08 0 
0.36 0.08 0 0.38 0.08 0 0.4 0.08 0 
0.42 0.08 0 0.44 0.08 0 0.46 0.08 0 
0.48 0.08 0 0.5 0.08 0 0.52 0.08 0 
0.54 0.08 0 0.56 0.08 0 0.58 0.08 0 
0.6 0.08 0 0.62 0.08 0 0.64 0.08 0 
0.66 0.08 0 0.68 0.08 0 0.7 0.08 0 
0.72 0.08 0 0.74 0.08 0 0.76 0.08 0 
0.78 0.08 0 0.8 0.08 0 0.82 0.08 0 
0.84 0.08 0 0.86 0.08 0 0.88 0.08 0 
0.9 0.08 0 0.92 0.08 0 0.94 0.08 0 
0.96 0.08 0 0.98 0.08 0 1 0.08 0 
0 0.1 0 0.02 0.1 0 0.04 0.1 0 
0.06 0.1 0 0.08 0.1 0 0.1 0.1 0 
0.12 0.1 0 0.14 0.1 0 0.16 0.1 0 
0.18 0.1 0 0.2 0.1 0 0.22 0.1 0 
0.24 0.1 0 0.26 0.1 0 0.28 0.1 0 
0.3 0.1 0 0.32 0.1 0 0.34 0.1 0 
0.36 0.1 0 0.38 0.1 0 0.4 0.1 0 
0.42 0.1 0 0.44 0.1 0 0.46 0.1 0 
0.48 0.1 0 0.5 0.1 0 0.52 0.1 0 
0.54 0.1 0 0.56 0.1 0 0.58 0.1 0 
0.6 0.1 0 0.62 0.1 0 0.64 0.1 0 
0.66 0.1 0 0.68 0.1 0 0.7 0.1 0 
0.72 0.1 0 0.74 0.1 0 0.76 0.1 0 
0.78 0.1 0 0.8 0.1 0 0.82 0.1 0 
0.84 0.1 0 0.86 0.1 0 0.88 0.1 0 
0.9 0.1 0 0.92 0.1 0 0.94 0.1 0 
0.96 0.1 0 0.98 0.1 0 1 0.1 0 
0 0.12 0 0.02 0.12 0 0.04 0.12 0 
0.06 0.12 0 0.08 0.12 0 0.1 0.12 0 
0.12 0.12 0 0.14 0.12 0 0.16 0.12 0 
0.18 0.12 0 0.2 0.12 0 0.22 0.12 0 
0.24 0.12 0 0.26 0.12 0 0.28 0.12 0 
0.3 0.12 0 0.32 0.12 0 0.34 0.12 0 
0.36 0.12 0 0.38 0.12 0 0.4 0.12 0 
0.42 0.12 0 0.44 0.12 0 0.46 0.12 0 
0.48 0.12 0 0.5 0.12 0 0.52 0.12 0 
0.54 0.12 0 0.56 0.12 0 0.58 0.12 0 
0.6 0.12 0 0.62 0.12 0 0.64 0.12 0 
0.66 0.12 0 0.68 0.12 0 0.7 0.12 0 
0.72 0.12 0 0.74 0.12 0 0.76 0.12 0 
0.78 0.12 0 0.8 0.12 0 0.82 0.12 0 
0.84 0.12 0 0.86 0.12 0 0.88 0.12 0 
0.9 0.12 0 0.92 0.12 0 0.94 0.12 0 
0.96 0.12 0 0.98 0.12 0 1 0.12 0 
0 0.14 0 0.02 0.14 0 0.04 0.14 0 
0.06 0.14 0 0.08 0.14 0 0.1 0.14 0 
0.12 0.14 0 0.14 0.14 0 0.16 0.14 0 
0.18 0.14 0 0.2 0.14 0 0.22 0.14 0 
0.24 0.14 0 0.26 0.14 0 0.28 0.14 0 
0.3 0.14 0 0.32 0.14 0 0.34 0.14 0 
0.36 0.14 0 0.38 0.14 0 0.4 0.14 0 
0.42 0.14 0 0.44 0.14 0 0.46 0.14 0 
0.48 0.14 0 0.5 0.14 0 0.52 0.14 0 
0.54 0.14 0 0.56 0.14 0 0.58 0.14 0 
0.6 0.14 0 0.62 0.14 0 0.64 0.14 0 
0.66 0.14 0 0.68 0.14 0 0.7 0.14 0 
0.72 0.14 0 0.74 0.14 0 0.76 0.14 0 
0.78 0.14 0 0.8 0.14 0 0.82 0.14 0 
0.84 0.14 0 0.86 0.14 0 0.88 0.14 0 
0.9 0.14 0 0.92 0.14 0 0.94 0.14 0 
0.96 0.14 0 0.98 0.14 0 1 0.14 0 
0 0.16 0 0.02 0.16 0 0.04 0.16 0 
0.06 0.16 0 0.08 0.16 0 0.1 0.16 0 
0.12 0.16 0 0.14 0.16 0 0.16 0.16 0 
0.18 0.16 0 0.2 0.16 0 0.22 0.16 0 
0.24 0.16 0 0.26 0.16 0 0.28 0.16 0 
0.3 0.16 0 0.32 0.16 0 0.34 0.16 0 
0.36 0.16 0 0.38 0.16 0 0.4 0.16 0 
0.42 0.16 0 0.44 0.16 0 0.46 0.16 0 
0.48 0.16 0 0.5 0.16 0 0.52 0.16 0 
0.54 0.16 0 0.56 0.16 0 0.58 0.16 0 
0.6 0.16 0 0.62 0.16 0 0.64 0.16 0 
0.66 0.16 0 0.68 0.16 0 0.7 0.16 0 
0.72 0.16 0 0.74 0.16 0 0.76 0.16 0 
0.78 0.16 0 0.8 0.16 0 0.82 0.16 0 
0.84 0.16 0 0.86 0.16 0 0.88 0.16 0 
0.9 0.16 0 0.92 0.16 0 0.94 0.16 0 
0.96 0.16 0 0.98 0.16 0 1 0.16 0 
0 0.18 0 0.02 0.18 0 0.04 0.18 0 
0.06 0.18 0 0.08 0.18 0 0.1 0.18 0 
0.12 0.18 0 0.14 0.18 0 0.16 0.18 0 
0.18 0.18 0 0.2 0.18 0 0.22 0.18 0 
0.24 0.18 0 0.26 0.18 0 0.28 0.18 0 
0.3 0.18 0 0.32 0.18 0 0.34 0.18 0 
0.36 0.18 0 0.38 0.18 0 0.4 0.18 0 
0.42 0.18 0 0.44 0.18 0 0.46 0.18 0 
0.48 0.18 0 0.5 0.18 0 0.52 0.18 0 
0.54 0.18 0 0.56 0.18 0 0.58 0.18 0 
0.6 0.18 0 0.62 0.18 0 0.64 0.18 0 
0.66 0.18 0 0.68 0.18 0 0.7 0.18 0 
0.72 0.18 0 0.74 0.18 0 0.76 0.18 0 
0.78 0.18 0 0.8 0.18 0 0.82 0.18 0 
0.84 0.18 0 0.86 0.18 0 0.88 0.18 0 
0.9 0.18 0 0.92 0.18 0 0.94 0.18 0 
0.96 0.18 0 0.98 0.18 0 1 0.18 0 
0 0.2 0 0.02 0.2 0 0.04 0.2 0 
0.06 0.2 0 0.08 0.2 0 0.1 0.2 0 
0.12 0.2 0 0.14 0.2 0 0.16 0.2 0 
0.18 0.2 0 0.2 0.2 0 0.22 0.2 0 
0.24 0.2 0 0.26 0.2 0 0.28 0.2 0 
0.3 0.2 0 0.32 0.2 0 0.34 0.2 0 
0.36 0.2 0 0.38 0.2 0 0.4 0.2 0 
0.42 0.2 0 0.44 0.2 0 0.46 0.2 0 
0.48 0.2 0 0.5 0.2 0 0.52 0.2 0 
0.54 0.2 0 0.56 0.2 0 0.58 0.2 0 
0.6 0.2 0 0.62 0.2 0 0.64 0.2 0 
0.66 0.2 0 0.68 0.2 0 0.7 0.2 0 
0.72 0.2 0 0.74 0.2 0 0.76 0.2 0 
0.78 0.2 0 0.8 0.2 0 0.82 0.2 0 
0.84 0.2 0 0.86 0.2 0 0.88 0.2 0 
0.9 0.2 0 0.92 0.2 0 0.94 0.2 0 
0.96 0.2 0 0.98 0.2 0 1 0.2 0 
0 0.22 0 0.02 0.22 0 0.04 0.22 0 
0.06 0.22 0 0.08 0.22 0 0.1 0.22 0 
0.12 0.22 0 0.14 0.22 0 0.16 0.22 0 
0.18 0.22 0 0.2 0.22 0 0.22 0.22 0 
0.24 0.22 0 0.26 0.22 0 0.28 0.22 0 
0.3 0.22 0 0.32 0.22 0 0.34 0.22 0 
0.36 0.22 0 0.38 0.22 0 0.4 0.22 0 
0.42 0.22 0 0.44 0.22 0 0.46 0.22 0 
0.48 0.22 0 0.5 0.22 0 0.52 0.22 0 
0.54 0.22 0 0.56 0.22 0 0.58 0.22 0 
0.6 0.22 0 0.62 0.22 0 0.64 0.22 0 
0.66 0.22 0 0.68 0.22 0 0.7 0.22 0 
0.72 0.22 0 0.74 0.22 0 0.76 0.22 0 
0.78 0.22 0 0.8 0.22 0 0.82 0.22 0 
0.84 0.22 0 0.86 0.22 0 0.88 0.22 0 
0.9 0.22 0 0.92 0.22 0 0.94 0.22 0 
0.96 0.22 0 0.98 0.22 0 1 0.22 0 
0 0.24 0 0.02 0.24 0 0.04 0.24 0 
0.06 0.24 0 0.08 0.24 0 0.1 0.24 0 
0.12 0.24 0 0.14 0.24 0 0.16 0.24 0 
0.18 0.24 0 0.2 0.24 0 0.22 0.24 0 
0.24 0.24 0 0.26 0.24 0 0.28 0.24 0 
0.3 0.24 0 0.32 0.24 0 0.34 0.24 0 
0.36 0.24 0 0.38 0.24 0 0.4 0.24 0 
0.42 0.24 0 0.44 0.24 0 0.46 0.24 0 
0.48 0.24 0 0.5 0.24 0 0.52 0.24 0 
0.54 0.24 0 0.56 0.24 0 0.58 0.24 0 
0.6 0.24 0 0.62 0.24 0 0.64 0.24 0 
0.66 0.24 0 0.68 0.24 0 0.7 0.24 0 
0.72 0.24 0 0.74 0.24 0 0.76 0.24 0 
0.78 0.24 0 0.8 0.24 0 0.82 0.24 0 
0.84 0.24 0 0.86 0.24 0 0.88 0.24 0 
0.9 0.24 0 0.92 0.24 0 0.94 0.24 0 
0.96 0.24 0 0.98 0.24 0 1 0.24 0 
0 0.26 0 0.02 0.26 0 0.04 0.26 0 
0.06 0.26 0 0.08 0.26 0 0.1 0.26 0 
0.12 0.26 0 0.14 0.26 0 0.16 0.26 0 
0.18 0.26 0 0.2 0.26 0 0.22 0.26 0 
0.24 0.26 0 0.26 0.26 0 0.28 0.26 0 
0.3 0.26 0 0.32 0.26 0 0.34 0.26 0 
0.36 0.26 0 0.38 0.26 0 0.4 0.26 0 
0.42 0.26 0 0.44 0.26 0 0.46 0.26 0 
0.48 0.26 0 0.5 0.26 0 0.52 0.26 0 
0.54 0.26 0 0.56 0.26 0 0.58 0.26 0 
0.6 0.26 0 0.62 0.26 0 0.64 0.26 0 
0.66 0.26 0 0.68 0.26 0 0.7 0.26 0 
0.72 0.26 0 0.74 0.26 0 0.76 0.26 0 
0.78 0.26 0 0.8 0.26 0 0.82 0.26 0 
0.84 0.26 0 0.86 0.26 0 0.88 0.26 0 
0.9 0.26 0 0.92 0.26 0 0.94 0.26 0 
0.96 0.26 0 0.98 0.26 0 1 0.26 0 
0 0.28 0 0.02 0.28 0 0.04 0.28 0 
0.06 0.28 0 0.08 0.28 0 0.1 0.28 0 
0.12 0.28 0 0.14 0.28 0 0.16 0.28 0 
0.18 0.28 0 0.2 0.28 0 0.22 0.28 0 
0.24 0.28 0 0.26 0.28 0 0.28 0.28 0 
0.3 0.28 0 0.32 0.28 0 0.34 0.28 0 
0.36 0.28 0 0.38 0.28 0 0.4 0.28 0 
0.42 0.28 0 0.44 0.28 0 0.46 0.28 0 
0.48 0.28 0 0.5 0.28 0 0.52 0.28 0 
0.54 0.28 0 0.56 0.28 0 0.58 0.28 0 
0.6 0.28 0 0.62 0.28 0 0.64 0.28 0 
0.66 0.28 0 0.68 0.28 0 0.7 0.28 0 
0.72 0.28 0 0.74 0.28 0 0.76 0.28 0 
0.78 0.28 0 0.8 0.28 0 0.82 0.28 0 
0.84 0.28 0 0.86 0.28 0 0.88 0.28 0 
0.9 0.28 0 0.92 0.28 0 0.94 0.28 0 
0.96 0.28 0 0.98 0.28 0 1 0.28 0 
0 0.3 0 0.02 0.3 0 0.04 0.3 0 
0.06 0.3 0 0.08 0.3 0 0.1 0.3 0 
0.12 0.3 0 0.14 0.3 0 0.16 0.3 0 
0.18 0.3 0 0.2 0.3 0 0.22 0.3 0 
0.24 0.3 0 0.26 0.3 0 0.28 0.3 0 
0.3 0.3 0 0.32 0.3 0 0.34 0.3 0 
0.36 0.3 0 0.38 0.3 0 0.4 0.3 0 
0.42 0.3 0 0.44 0.3 0 0.46 0.3 0 
0.48 0.3 0 0.5 0.3 0 0.52 0.3 0 
0.54 0.3 0 0.56 0.3 0 0.58 0.3 0 
0.6 0.3 0 0.62 0.3 0 0.64 0.3 0 
0.66 0.3 0 0.68 0.3 0 0.7 0.3 0 
0.72 0.3 0 0.74 0.3 0 0.76 0.3 0 
0.78 0.3 0 0.8 0.3 0 0.82 0.3 0 
0.84 0.3 0 0.86 0.3 0 0.88 0.3 0 
0.9 0.3 0 0.92 0.3 0 0.94 0.3 0 
0.96 0.3 0 0.98 0.3 0 1 0.3 0 
0 0.32 0 0.02 0.32 0 0.04 0.32 0 
0.06 0.32 0 0.08 0.32 0 0.1 0.32 0 
0.12 0.32 0 0.14 0.32 0 0.16 0.32 0 
0.18 0.32 0 0.2 0.32 0 0.22 0.32 0 
0.24 0.32 0 0.26 0.32 0 0.28 0.32 0 
0.3 0.32 0 0.32 0.32 0 0.34 0.32 0 
0.36 0.32 0 0.38 0.32 0 0.4 0.32 0 
0.42 0.32 0 0.44 0.32 0 0.46 0.32 0 
0.48 0.32 0 0.5 0.32 0 0.52 0.32 0 
0.54 0.32 0 0.56 0.32 0 0.58 0.32 0 
[...]
CELL_DATA 2500
FIELD FieldData 2
pressure 1 2500 double
-0.0058526460918 -0.0058448734678 -0.0058665417024 -0.0059222446377 -0.0060075664264 -0.0061160294244 -0.0062428994934 -0.0063860676583 -0.0065462777632 
-0.0067251953863 -0.0069267735619 -0.0071521511361 -0.0074015243477 -0.0076741195483 -0.0079651509652 -0.0082679584487 -0.0085733061061 -0.0088697291982 
-0.0091439121917 -0.0093809178403 -0.0095644608274 -0.0096773113804 -0.0097018349806 -0.0096208236429 -0.0094186306593 -0.0090824742121 -0.0086037517482 
-0.0079793990597 -0.0072133116691 -0.0063178956174 -0.0053167732197 -0.004265433558 -0.0032033045229 -0.002181055773 -0.001256007763 -0.00048744814248 
6.9761871565e-05 0.00037330800233 0.00040252000153 0.00016692615734 -0.00026622499412 -0.0008217131454 -0.001411722153 -0.0019513042971 -0.0023823276634 
-0.0026902009784 -0.0028837471153 -0.0029799021256 -0.0029971856326 -0.0029608845748 -0.0058599848317 -0.0058522566878 -0.0058759663188 -0.0059304483099 
-0.0060108518556 -0.0061112117982 -0.0062279079375 -0.0063595124186 -0.006508160172 -0.0066741947832 -0.0068645463073 -0.0070787669421 -0.0073173244558 
-0.0075789231852 -0.0078597691275 -0.0081539339552 -0.0084533898406 -0.0087479948116 -0.0090253598185 -0.0092708930243 -0.0094680383872 -0.0095987389365 
-0.0096443164405 -0.0095866390022 -0.0094093666483 -0.0090991890201 -0.0086470106823 -0.0080489686541 -0.0073072321807 -0.0064310315779 -0.0054776552211 
-0.0044609385393 -0.0034280692952 -0.0024311743589 -0.0015273065815 -0.0007748361132 -0.00022737781643 7.4249673147e-05 0.00011131227724 -0.00010368606631 
-0.00052085754048 -0.0010262351748 -0.0015636685505 -0.0020506730205 -0.0024315034586 -0.0026972716463 -0.0028616285917 -0.0029446112721 -0.0029633789088 
-0.0029261297084 -0.0058381438657 -0.0058315937584 -0.0058590592754 -0.0059157188133 -0.0059944642659 -0.0060885582839 -0.0061967972363 -0.0063159682426 
-0.0064534704723 -0.0066104307758 -0.0067918077719 -0.0069996830031 -0.0072348178674 -0.0074963397883 -0.0077814092631 -0.0080851663717 -0.0084004741559 
-0.008717493967 -0.0090234561974 -0.0093027201521 -0.0095371544578 -0.009707033588 -0.0097922725293 -0.0097736630463 -0.0096341140598 -0.0093597653061 
-0.0089408816766 -0.0083723991817 -0.0076533530092 -0.0068252124428 -0.0058984096392 -0.0049025602118 -0.0038829643291 -0.0028916228127 -0.0019854419571 
-0.0012225764903 -0.00065664513696 -0.0003289393477 -0.00025922653207 -0.00043648923996 -0.00081224154643 -0.001300816051 -0.0018025955833 -0.0022594381901 
-0.0026042730055 -0.0028237469505 -0.0029489098375 -0.0030044898209 -0.0030090298757 -0.0029630272708 -0.0057802540719 -0.0057807990897 -0.0058156630369 
-0.0058771776954 -0.0059566563182 -0.0060471433231 -0.0061481822726 -0.0062611521694 -0.0063923882164 -0.0065468973706 -0.0067297212674 -0.0069442925927 
-0.0071923517429 -0.0074738762753 -0.0077868491742 -0.0081268095334 -0.0084862262996 -0.0088540457752 -0.0092155903048 -0.0095528914415 -0.0098456081595 
-0.010072301793 -0.010211699235 -0.010243945041 -0.010151698052 -0.0099210097786 -0.0095421843 -0.0090108476122 -0.0083301834648 -0.0075381861286 
-0.0066341847732 -0.0056531149071 -0.0046382676511 -0.0036401752135 -0.0027145485111 -0.0019187350183 -0.0013063091839 -0.00091975548485 -0.00078174832897 
-0.00088636413402 -0.0011929471968 -0.0016271304279 -0.0020943416481 -0.0025180457601 -0.0028453386273 -0.0030334920043 -0.0031243891723 -0.0031519937203 
-0.003140435446 -0.0030928004142 -0.0056845551021 -0.005698060928 -0.0057437794737 -0.0058117631835 -0.005893445874 -0.0059848589108 -0.0060856678813 
-0.0062009158119 -0.0063380919401 -0.0065044873532 -0.0067063535452 -0.0069483218618 -0.0072331048398 -0.007561239748 -0.0079306033631 -0.0083356536115 
-0.0087668476047 -0.0092104665555 -0.0096489123456 -0.010061643761 -0.010426479241 -0.010720862873 -0.010923109195 -0.011013460006 -0.010974878642 
-0.010793858438 -0.010461226345 -0.0099726939162 -0.0093453360688 -0.0085823517203 -0.0077012273048 -0.0067331863017 -0.0057184193799 -0.0047046448576 
-0.0037451073168 -0.0028953711719 -0.0022084770307 -0.0017283499257 -0.0014818456518 -0.0014706590985 -0.0016654901746 -0.0020060581446 -0.0024104581554 
-0.0027940199985 -0.0030836788056 -0.0032712417184 -0.003345282666 -0.0033585692345 -0.0033402051371 -0.0032999435688 -0.005552159343 -0.0055833984821 
-0.0056411511856 -0.0057176635607 -0.0058068388222 -0.0059051663527 -0.0060163538693 -0.0061477818078 -0.0063084589368 -0.0065070897674 -0.0067510876627 
-0.0070459260381 -0.0073946516733 -0.0077973449114 -0.0082502972341 -0.008745373169 -0.0092698487951 -0.0098067031086 -0.010335565082 -0.010834033234 
-0.01127891831 -0.011647464697 -0.011918322162 -0.012072283542 -0.012093062088 -0.011968133347 -0.011689619328 -0.011255343722 -0.010677071237 
-0.0099506599879 -0.0090963671827 -0.0081426777686 -0.007126154768 -0.0060906363807 -0.0050857192348 -0.0041641506275 -0.0033777651782 -0.0027718279557 
-0.0023780628328 -0.0022073473762 -0.0022439401104 -0.0024438727761 -0.0027399558633 -0.0030540130797 -0.0033148677495 -0.0034845998501 -0.0035699988823 
-0.0035923767242 -0.0035823993886 -0.0035570004359 -0.0053888893643 -0.005441301645 -0.0055136054067 -0.0056012750415 -0.0057023076578 -0.0058179350373 
-0.0059540984159 -0.0061197604209 -0.0063249212615 -0.0065791675113 -0.0068904675469 -0.0072643390338 -0.007703110484 -0.0082049586345 -0.0087632307504 
-0.0093663254253 -0.0099980107089 -0.010638391421 -0.011265250757 -0.011855248969 -0.012385098875 -0.012832455568 -0.013176579164 -0.013399061491 
-0.013484594987 -0.013421802168 -0.013204237568 -0.012831499475 -0.012305171303 -0.011621586849 -0.010799188453 -0.0098631837416 -0.0088458283057 
-0.0077861648878 -0.006729099813 -0.0057235244841 -0.0048191873101 -0.0040621510605 -0.0034889849873 -0.0031203607946 -0.002955381398 -0.0029685300835 
-0.0031112317026 -0.0033195008163 -0.0035286306407 -0.0036944228569 -0.0037959781702 -0.0038361268863 -0.003848920612 -0.0038434585338 -0.0052088239448 
-0.0052856537446 -0.0053713903999 -0.0054739509107 -0.0055959551258 -0.0057420000916 -0.0059197502768 -0.0061389673105 -0.0064101734823 -0.0067431019196 
-0.0071454194253 -0.0076216607586 -0.0081720063887 -0.0087914640732 -0.009469768814 -0.010191709716 -0.010938116662 -0.011687253832 -0.012415961723 
-0.013100774922 -0.013718756494 -0.01424809563 -0.014668782343 -0.01496330452 -0.015117398516 -0.015120916791 -0.014968732203 -0.014661688303 
-0.014191176576 -0.01355553057 -0.012770362439 -0.011856983009 -0.010842750541 -0.0097611739964 -0.0086515410449 -0.0075578207261 -0.006526566188 
-0.0056036152521 -0.004829599334 -0.0042346294113 -0.0038329839655 -0.0036190754384 -0.0035662121433 -0.0036296292125 -0.0037548897621 -0.0038910573632 
-0.0040025590063 -0.0040891784857 -0.0041360738759 -0.0041531739289 -0.0050346694395 -0.0051329250295 -0.0052357791217 -0.0053595511653 -0.0055127802203 
-0.0057027296307 -0.0059380291163 -0.0062288211711 -0.0065854826431 -0.007017110542 -0.007530118014 -0.008126657459 -0.0088035325951 -0.0095520247938 
-0.010358173567 -0.011203748425 -0.012067704975 -0.012927270535 -0.013759012027 -0.014539645353 -0.015246592108 -0.015858618305 -0.016356510667 
-0.016723758021 -0.016947295154 -0.017018202188 -0.016932349838 -0.016691120456 -0.016279134995 -0.015695402791 -0.014952717284 -0.014068295732 
-0.01306426537 -0.011968062719 -0.010812572234 -0.0096357950876 -0.0084797996355 -0.0073887325977 -0.0064057772886 -0.005569151401 -0.0049075255808 
-0.0044355687921 -0.0041505564741 -0.0040311369157 -0.004039475465 -0.004128099074 -0.0042524114081 -0.0043730091532 -0.0044530979013 -0.0044933914415 
-0.0048953538732 -0.0050151683629 -0.0051371281009 -0.0052883574292 -0.0054821790531 -0.0057275993199 -0.006033855868 -0.0064109355999 -0.006868417797 
-0.0074139677608 -0.0080514145398 -0.008779320818 -0.0095906211298 -0.010472771259 -0.01140864826 -0.012378048258 -0.013358698339 -0.014327302086 
-0.015260351907 -0.016134655178 -0.016927986288 -0.017619785984 -0.018191812078 -0.018628799647 -0.018919026203 -0.019054729122 -0.019032539208 
-0.018853945485 -0.018500398245 -0.017970853406 -0.017275411914 -0.016427241382 -0.015443157426 -0.014344245859 -0.013156418564 -0.011910766798 
-0.01064351154 -0.009395325713 -0.00820982172 -0.0071310760218 -0.0062001907533 -0.005451049646 -0.0049055413167 -0.0045687206082 -0.0044247168419 
-0.004435150163 -0.0045434546241 -0.0046857517763 -0.0048112535084 -0.0048778690705 -0.0048259399421 -0.0049646830611 -0.0051076056702 -0.0052912918147 
-0.0055326563127 -0.0058420448721 -0.0062289090889 -0.0067025701777 -0.0072712203132 -0.0079398747845 -0.0087086194559 -0.0095719903278 -0.010518921179 
-0.01153349311 -0.012596428172 -0.013686010735 -0.014779114459 -0.015852031869 -0.016880993213 -0.017842866042 -0.018715922875 -0.019480499623 
-0.020119630685 -0.02061955915 -0.020969984434 -0.021164285423 -0.021199703085 -0.021077571501 -0.020779605085 -0.020304618143 -0.019660233979 
-0.018855821364 -0.017903079287 -0.016816762378 -0.015615531065 -0.014322856367 -0.012967843311 -0.011585779653 -0.010218165554 -0.0089119377429 
-0.0077175687179 -0.0066856835974 -0.0058617811649 -0.0052787261658 -0.0049471027037 -0.004845189804 -0.0049144447002 -0.005070754697 -0.0052338237427 
-0.0053260787985 -0.0048565559935 -0.0050110698302 -0.0051758113076 -0.0053948084803 -0.0056878025577 -0.0060661334273 -0.0065390781534 -0.0071149161317 
-0.0077993846468 -0.0085937738678 -0.0094940486148 -0.010490586857 -0.011568701619 -0.012710070379 -0.013893562257 -0.015096217403 -0.016294091672 
-0.017462793425 -0.018578248359 -0.019617568323 -0.020559755511 -0.021386373256 -0.022082073465 -0.022634745398 -0.023035622823 -0.023279264201 
-0.02336350006 -0.023289489313 -0.023041944818 -0.022619980862 -0.022029055771 -0.021275173317 -0.020365371688 -0.019308438049 -0.018115888127 
-0.016803226698 -0.015391448001 -0.013908651111 -0.012391542727 -0.010886449748 -0.0094492783306 -0.008143621847 -0.0070359423997 -0.0061866110623 
-0.0056359695288 -0.0053865807779 -0.0053884128993 -0.0055430386588 -0.0057347392853 -0.0058535223833 -0.0050104825765 -0.0051768607609 -0.0053627761339 
-0.0056177544156 -0.0059636891547 -0.0064125136593 -0.0069730938438 -0.0076517868657 -0.0084508999036 -0.0093676781959 -0.010393889688 -0.011516088515 
-0.012716920645 -0.013975872708 -0.015270146601 -0.016575517996 -0.017866898945 -0.019119163959 -0.020308146916 -0.021411427053 -0.022409071042 
-0.023284250299 -0.024023354637 -0.024616092443 -0.025055365151 -0.025337017245 -0.025459627515 -0.02542429195 -0.025220455103 -0.024848272533 
-0.024311395529 -0.023613052705 -0.022756351238 -0.021744836566 -0.020583421406 -0.019279777857 -0.017846262638 -0.01630236432 -0.014677504468 
-0.013013802548 -0.011368107565 -0.0098121608493 -0.0084292170707 -0.0073050081535 -0.0065110489396 -0.0060802086229 -0.0059805575733 -0.0061064395941 
-0.006309675016 -0.0064693048061 -0.0053012542076 -0.005474913609 -0.0056800503722 -0.0059698888264 -0.0063676995013 -0.0068857102855 -0.0075316685657 
-0.0083091131421 -0.0092166407221 -0.010247475149 -0.011389502598 -0.012626409911 -0.013938396752 -0.015302878901 -0.016695361864 -0.018090017309 
-0.019460554625 -0.020781361827 -0.022028393353 -0.023180018428 -0.024217764633 -0.025126472244 -0.02589447025 -0.026513437754 -0.026978060628 
-0.027285672869 -0.027435798572 -0.027429692263 -0.027262211024 -0.026935166616 -0.0264508364 -0.02581039982 -0.025013976751 -0.024060933866 
-0.022950579521 -0.021683451273 -0.020263386546 -0.018700473522 -0.017014850122 -0.015241058984 -0.01343223518 -0.011662771483 -0.010027300827 
-0.0086330057448 -0.0075819652893 -0.0069418150992 -0.006709201501 -0.0067859965377 -0.0070057581252 -0.0071954387649 -0.0057316796192 -0.005907790031 
-0.006129440595 -0.0064517436109 -0.0068986281315 -0.0074819497965 -0.0082074554823 -0.0090755728386 -0.010081319446 -0.011214213879 -0.012459222656 
-0.013797491717 -0.015206839823 -0.016662632307 -0.018138357685 -0.019606524509 -0.021039936934 -0.022412706364 -0.023701218174 -0.024885034878 
-0.025947148372 -0.026874288574 -0.027656849273 -0.028288543472 -0.028766008857 -0.029088221719 -0.029255832842 -0.029270466904 -0.029132169266 
-0.028844628917 -0.028409210783 -0.027825836067 -0.027092743655 -0.026206440682 -0.025162046066 -0.023954264492 -0.022579255325 -0.021037694192 
-0.019339191392 -0.017507937192 -0.015588960246 -0.013653588685 -0.011801582943 -0.010156165521 -0.0088473158766 -0.0079796256436 -0.0075866545751 
-0.0075898849566 -0.0078086693457 -0.008032177267 -0.0062945573108 -0.0064686593984 -0.0067038770675 -0.0070555227575 -0.0075472792627 -0.0081896594101 
-0.0089860038976 -0.0099338259086 -0.011024884095 -0.012245934574 -0.013579524593 -0.015004286403 -0.016495766977 -0.018027012542 -0.019569453615 
-0.021094290056 -0.022573651712 -0.023981674261 -0.025295589188 -0.026496127779 -0.027567977131 -0.02849985573 -0.029284231511 -0.029916975075 
-0.030396721498 -0.030724108697 -0.030900959087 -0.030929468001 -0.030814020813 -0.030559784442 -0.030167718045 -0.029637291199 -0.028965980484 
-0.028148909712 -0.027178749412 -0.026046141439 -0.024741079551 -0.023255679084 -0.021588724745 -0.019752181693 -0.017779291259 -0.015732901805 
-0.013711309061 -0.011847196201 -0.010293729899 -0.009191895976 -0.0086176935662 -0.0085236394088 -0.0087255077294 -0.0089802319294 -0.0069745810582 
-0.0071430261268 -0.0073889808098 -0.0077663813795 -0.0082974690718 -0.0089907550479 -0.009847330808 -0.010862101301 -0.012024436577 -0.013319021525 
-0.014726002211 -0.0162216915 -0.017779191605 -0.019369212105 -0.020961535496 -0.02252633959 -0.024035371287 -0.025463230976 -0.026787975752 
-0.027991726681 -0.029060972086 -0.029986403715 -0.030762668167 -0.031387733647 -0.031862100471 -0.032187933749 -0.03236819225 -0.032405684675 
-0.032307850802 -0.032080592501 -0.031724914334 -0.031240523853 -0.030625216152 -0.029874190614 -0.028979455618 -0.027929641854 -0.026710630888 
-0.025307610785 -0.023709284978 -0.021914728798 -0.019942851216 -0.01784339223 -0.015706751254 -0.013667774734 -0.011896357087 -0.010566629745 
-0.0097995665183 -0.0095884332491 -0.0097578416908 -0.010037191691 -0.0077507092278 -0.0079107914184 -0.0081648495396 -0.0085638527005 -0.0091275782576 
-0.0098624944271 -0.010767692346 -0.011836190669 -0.013055805519 -0.014409199028 -0.015874347201 -0.017425209455 -0.019032432278 -0.020664854751 
-0.022290984639 -0.023880262516 -0.025404527631 -0.026838849252 -0.028162304251 -0.029358553853 -0.030415867065 -0.031327010855 -0.032088690136 
-0.032700775054 -0.033165383705 -0.033485961986 -0.033666308627 -0.033709754362 -0.033625461537 -0.03341912875 -0.033092172135 -0.032645132497 
-0.032076967977 -0.03138414554 -0.030559655678 -0.029592149653 -0.02846568211 -0.027160825723 -0.025658033003 -0.023944159205 -0.022022635916 
-0.01992667535 -0.01773303856 -0.015571282696 -0.013620328363 -0.012081858582 -0.011121352274 -0.010780143645 -0.01090507082 -0.011207201314 
-0.0085984632397 -0.0087482845801 -0.0090077588661 -0.0094235287457 -0.010012549523 -0.010779378535 -0.011721596987 -0.012831200097 -0.014094567263 
-0.015492533161 -0.017001020705 -0.018591612606 -0.020233016031 -0.02189267366 -0.023538107227 -0.02513852565 -0.026665912161 -0.028095964708 
-0.029408985514 -0.030590157332 -0.031629627534 -0.032522119383 -0.033266210688 -0.033863369271 -0.034316974453 -0.034631267604 -0.034810544795 
-0.034858486473 -0.034784622218 -0.034593788312 -0.034288063099 -0.03386915025 -0.033337699025 -0.032692279066 -0.031928066429 -0.031035448462 
-0.029998987434 -0.028797374152 -0.027405489173 -0.025799924724 -0.023969039755 -0.021927620781 -0.019734210719 -0.017506070603 -0.015422835092 
-0.013706274246 -0.012562891261 -0.012085936287 -0.012155722602 -0.0124721812 -0.0094919161039 -0.0096300189587 -0.0098917906916 -0.010318997305 
-0.010925805689 -0.01171507994 -0.012683616083 -0.013822583233 -0.01511701302 -0.016546135059 -0.018083788133 -0.019699708986 -0.021361239802 
-0.023034734997 -0.024687253238 -0.026287904323 -0.02780893067 -0.029226910689 -0.030523364624 -0.031685075153 -0.032704000681 -0.03357665569 
-0.034303167166 -0.034886243082 -0.035329992166 -0.035638998792 -0.035817622507 -0.035869547612 -0.035803846325 -0.035624027693 -0.035332911169 
-0.034933478015 -0.034428251158 -0.033818242329 -0.033101516349 -0.03227152667 -0.031315364965 -0.030212577535 -0.028935679606 -0.027453997918 
-0.025742683427 -0.023797887775 -0.021656944057 -0.019418863009 -0.017255744985 -0.01540069373 -0.014095016513 -0.013484118938 -0.013490904821 
-0.013813761424 -0.010405320296 -0.01053010239 -0.010790488502 -0.011223619191 -0.01184096979 -0.01264415367 -0.013629409666 -0.014787012215 
-0.016100865566 -0.017548582012 -0.019102395034 -0.020730855384 -0.022400284001 -0.024076476644 -0.025726267613 -0.02731873138 -0.028826658737 
-0.030227526383 -0.031504114384 -0.032644809676 -0.03364320704 -0.034497309077 -0.035208490376 -0.035780194407 -0.03621677922 -0.036522660776 
-0.036701813034 -0.036757786145 -0.036698665872 -0.036526446003 -0.036244612489 -0.035857302371 -0.035368792002 -0.034782518926 -0.034099751905 
-0.033317751192 -0.032427607945 -0.031412121685 -0.030244645078 -0.028890817841 -0.027315691467 -0.025498304686 -0.023453655897 -0.021258098508 
-0.019068675685 -0.017120505027 -0.015681350673 -0.014945660626 -0.014885234527 -0.015207295599 -0.011314411241 -0.011423378218 -0.011678285854 
-0.012111935565 -0.012733337602 -0.013543028338 -0.014536448784 -0.015703043738 -0.017025612574 -0.018480507758 -0.020039058873 -0.021669030575 
-0.023336248337 -0.025006292943 -0.026645804047 -0.028224140968 -0.029714700734 -0.03109586039 -0.032351726626 -0.033472088406 -0.034451919577 
-0.035290453584 -0.035989863693 -0.036553852816 -0.036986566508 -0.037291827923 -0.037473043409 -0.037533264291 -0.037479737063 -0.037312704 
-0.037036132281 -0.036655095897 -0.036175355151 -0.035602603833 -0.034941200874 -0.034192444194 -0.033352253338 -0.032408316599 -0.031337551969 
-0.030105622848 -0.028671450403 -0.026999996175 -0.025084718192 -0.02297680467 -0.020812057221 -0.018818502623 -0.01728066407 -0.016436010172 
-0.016308265235 -0.016623570535 -0.012197889221 -0.012285808603 -0.012531474173 -0.012960794649 -0.013580786657 -0.014390566055 -0.015384568935 
-0.016551419175 -0.017873001407 -0.019325073389 -0.020878544507 -0.022500893585 -0.024157875703 -0.025814901098 -0.027438752823 -0.028999185302 
-0.030470182369 -0.03183113451 -0.033067255451 -0.034169514461 -0.035134016889 -0.035960836731 -0.036652470351 -0.037212525065 -0.037644553829 
-0.037951645122 -0.038136299213 -0.038201032234 -0.038152461232 -0.037988895004 -0.037714621947 -0.037335410258 -0.036858296171 -0.036290879144 
-0.035640290158 -0.03491166412 -0.034105816522 -0.033216151788 -0.032225138173 -0.03110178117 -0.029803145273 -0.028284262769 -0.026519602476 
-0.024534729219 -0.022439829873 -0.020447685094 -0.018849372343 -0.017917083084 -0.01772612822 -0.018030360175 -0.013034058108 -0.01310016797 
-0.013329104975 -0.013750149771 -0.014364246496 -0.015168471779 -0.016156283157 -0.017315437798 -0.018627450586 -0.020068067243 -0.021608226761 
-0.023215597915 -0.024855983281 -0.026494951266 -0.028099602273 -0.029640079244 -0.031091106282 -0.032432876212 -0.033651502812 -0.034738883082 
-0.035691892684 -0.036510963517 -0.037198640872 -0.037758074789 -0.038192166142 -0.038503036628 -0.038692332823 -0.03876166134 -0.038717458758 
-0.038556039998 -0.038281830505 -0.037901225056 -0.037422304478 -0.036854231865 -0.036206440512 -0.035487286298 -0.034702096289 -0.033850098825 
-0.032920364815 -0.031887769343 -0.030711552552 -0.029341519554 -0.027737069956 -0.025899649765 -0.023911548288 -0.021963711278 -0.020343894895 
-0.019349219438 -0.019103099657 -0.019393776267 -0.013800197502 -0.013855054513 -0.01405932051 -0.014463349331 -0.015068034299 -0.015861589166 