# vtk DataFile Version 4.1
vtk output
ASCII
DATASET STRUCTURED_GRID
DIMENSIONS 51 51 1
POINTS 2601 float
0 0 0 0.02 0 0 0.04 0 0 
0.06 0 0 0.08 0 0 0.1 0 0 
0.12 0 0 0.14 0 0 0.16 0 0 
0.18 0 0 0.2 0 0 0.22 0 0 
0.24 0 0 0.26 0 0 0.28 0 0 
0.3 0 0 0.32 0 0 0.34 0 0 
0.36 0 0 0.38 0 0 0.4 0 0 
0.42 0 0 0.44 0 0 0.46 0 0 
0.48 0 0 0.5 0 0 0.52 0 0 
0.54 0 0 0.56 0 0 0.58 0 0 
0.6 0 0 0.62 0 0 0.64 0 0 
0.66 0 0 0.68 0 0 0.7 0 0 
0.72 0 0 0.74 0 0 0.76 0 0 
0.78 0 0 0.8 0 0 0.82 0 0 
0.84 0 0 0.86 0 0 0.88 0 0 
0.9 0 0 0.92 0 0 0.94 0 0 
0.96 0 0 0.98 0 0 1 0 0 
0 0.02 0 0.02 0.02 0 0.04 0.02 0 
0.06 0.02 0 0.08 0.02 0 0.1 0.02 0 
0.12 0.02 0 0.14 0.02 0 0.16 0.02 0 
0.18 0.02 0 0.2 0.02 0 0.22 0.02 0 
0.24 0.02 0 0.26 0.02 0 0.28 0.02 0 
0.3 0.02 0 0.32 0.02 0 0.34 0.02 0 
0.36 0.02 0 0.38 0.02 0 0.4 0.02 0 
0.42 0.02 0 0.44 0.02 0 0.46 0.02 0 
0.48 0.02 0 0.5 0.02 0 0.52 0.02 0 
0.54 0.02 0 0.56 0.02 0 0.58 0.02 0 
0.6 0.02 0 0.62 0.02 0 0.64 0.02 0 
0.66 0.02 0 0.68 0.02 0 0.7 0.02 0 
0.72 0.02 0 0.74 0.02 0 0.76 0.02 0 
0.78 0.02 0 0.8 0.02 0 0.82 0.02 0 
0.84 0.02 0 0.86 0.02 0 0.88 0.02 0 
0.9 0.02 0 0.92 0.02 0 0.94 0.02 0 
0.96 0.02 0 0.98 0.02 0 1 0.02 0 
0 0.04 0 0.02 0.04 0 0.04 0.04 0 
0.06 0.04 0 0.08 0.04 0 0.1 0.04 0 
0.12 0.04 0 0.14 0.04 0 0.16 0.04 0 
0.18 0.04 0 0.2 0.04 0 0.22 0.04 0 
0.24 0.04 0 0.26 0.04 0 0.28 0.04 0 
0.3 0.04 0 0.32 0.04 0 0.34 0.04 0 
0.36 0.04 0 0.38 0.04 0 0.4 0.04 0 
0.42 0.04 0 0.44 0.04 0 0.46 0.04 0 
0.48 0.04 0 0.5 0.04 0 0.52 0.04 0 
0.54 0.04 0 0.56 0.04 0 0.58 0.04 0 
0.6 0.04 0 0.62 0.04 0 0.64 0.04 0 
0.66 0.04 0 0.68 0.04 0 0.7 0.04 0 
0.72 0.04 0 0.74 0.04 0 0.76 0.04 0 
0.78 0.04 0 0.8 0.04 0 0.82 0.04 0 
0.84 0.04 0 0.86 0.04 0 0.88 0.04 0 
0.9 0.04 0 0.92 0.04 0 0.94 0.04 0 
0.96 0.04 0 0.98 0.04 0 1 0.04 0 
0 0.06 0 0.02 0.06 0 0.04 0.06 0 
0.06 0.06 0 0.08 0.06 0 0.1 0.06 0 
0.12 0.06 0 0.14 0.06 0 0.16 0.06 0 
0.18 0.06 0 0.2 0.06 0 0.22 0.06 0 
0.24 0.06 0 0.26 0.06 0 0.28 0.06 0 
0.3 0.06 0 0.32 0.06 0 0.34 0.06 0 
0.36 0.06 0 0.38 0.06 0 0.4 0.06 0 
0.42 0.06 0 0.44 0.06 0 0.46 0.06 0 
0.48 0.06 0 0.5 0.06 0 0.52 0.06 0 
0.54 0.06 0 0.56 0.06 0 0.58 0.06 0 
0.6 0.06 0 0.62 0.06 0 0.64 0.06 0 
0.66 0.06 0 0.68 0.06 0 0.7 0.06 0 
0.72 0.06 0 0.74 0.06 0 0.76 0.06 0 
0.78 0.06 0 0.8 0.06 0 0.82 0.06 0 
0.84 0.06 0 0.86 0.06 0 0.88 0.06 0 
0.9 0.06 0 0.92 0.06 0 0.94 0.06 0 
0.96 0.06 0 0.98 0.06 0 1 0.06 0 
0 0.08 0 0.02 0.08 0 0.04 0.08 0 
0.06 0.08 0 0.08 0.08 0 0.1 0.08 0 
0.12 0.08 0 0.14 0.08 0 0.16 0.08 0 
0.18 0.08 0 0.2 0.08 0 0.22 0.08 0 
0.24 0.08 0 0.26 0.08 0 0.28 0.08 0 
0.3 0.08 0 0.32 0.08 0 0.34 0.08 0 
0.36 0.08 0 0.38 0.08 0 0.4 0.08 0 
0.42 0.08 0 0.44 0.08 0 0.46 0.08 0 
0.48 0.08 0 0.5 0.08 0 0.52 0.08 0 
0.54 0.08 0 0.56 0.08 0 0.58 0.08 0 
0.6 0.08 0 0.62 0.08 0 0.64 0.08 0 
0.66 0.08 0 0.68 0.08 0 0.7 0.08 0 
0.72 0.08 0 0.74 0.08 0 0.76 0.08 0 
0.78 0.08 0 0.8 0.08 0 0.82 0.08 0 
0.84 0.08 0 0.86 0.08 0 0.88 0.08 0 
0.9 0.08 0 0.92 0.08 0 0.94 0.08 0 
0.96 0.08 0 0.98 0.08 0 1 0.08 0 
0 0.1 0 0.02 0.1 0 0.04 0.1 0 
0.06 0.1 0 0.08 0.1 0 0.1 0.1 0 
0.12 0.1 0 0.14 0.1 0 0.16 0.1 0 
0.18 0.1 0 0.2 0.1 0 0.22 0.1 0 
0.24 0.1 0 0.26 0.1 0 0.28 0.1 0 
0.3 0.1 0 0.32 0.1 0 0.34 0.1 0 
0.36 0.1 0 0.38 0.1 0 0.4 0.1 0 
0.42 0.1 0 0.44 0.1 0 0.46 0.1 0 
0.48 0.1 0 0.5 0.1 0 0.52 0.1 0 
0.54 0.1 0 0.56 0.1 0 0.58 0.1 0 
0.6 0.1 0 0.62 0.1 0 0.64 0.1 0 
0.66 0.1 0 0.68 0.1 0 0.7 0.1 0 
0.72 0.1 0 0.74 0.1 0 0.76 0.1 0 
0.78 0.1 0 0.8 0.1 0 0.82 0.1 0 
0.84 0.1 0 0.86 0.1 0 0.88 0.1 0 
0.9 0.1 0 0.92 0.1 0 0.94 0.1 0 
0.96 0.1 0 0.98 0.1 0 1 0.1 0 
0 0.12 0 0.02 0.12 0 0.04 0.12 0 
0.06 0.12 0 0.08 0.12 0 0.1 0.12 0 
0.12 0.12 0 0.14 0.12 0 0.16 0.12 0 
0.18 0.12 0 0.2 0.12 0 0.22 0.12 0 
0.24 0.12 0 0.26 0.12 0 0.28 0.12 0 
0.3 0.12 0 0.32 0.12 0 0.34 0.12 0 
0.36 0.12 0 0.38 0.12 0 0.4 0.12 0 
0.42 0.12 0 0.44 0.12 0 0.46 0.12 0 
0.48 0.12 0 0.5 0.12 0 0.52 0.12 0 
0.54 0.12 0 0.56 0.12 0 0.58 0.12 0 
0.6 0.12 0 0.62 0.12 0 0.64 0.12 0 
0.66 0.12 0 0.68 0.12 0 0.7 0.12 0 
0.72 0.12 0 0.74 0.12 0 0.76 0.12 0 
0.78 0.12 0 0.8 0.12 0 0.82 0.12 0 
0.84 0.12 0 0.86 0.12 0 0.88 0.12 0 
0.9 0.12 0 0.92 0.12 0 0.94 0.12 0 
0.96 0.12 0 0.98 0.12 0 1 0.12 0 
0 0.14 0 0.02 0.14 0 0.04 0.14 0 
0.06 0.14 0 0.08 0.14 0 0.1 0.14 0 
0.12 0.14 0 0.14 0.14 0 0.16 0.14 0 
0.18 0.14 0 0.2 0.14 0 0.22 0.14 0 
0.24 0.14 0 0.26 0.14 0 0.28 0.14 0 
0.3 0.14 0 0.32 0.14 0 0.34 0.14 0 
0.36 0.14 0 0.38 0.14 0 0.4 0.14 0 
0.42 0.14 0 0.44 0.14 0 0.46 0.14 0 
0.48 0.14 0 0.5 0.14 0 0.52 0.14 0 
0.54 0.14 0 0.56 0.14 0 0.58 0.14 0 
0.6 0.14 0 0.62 0.14 0 0.64 0.14 0 
0.66 0.14 0 0.68 0.14 0 0.7 0.14 0 
0.72 0.14 0 0.74 0.14 0 0.76 0.14 0 
0.78 0.14 0 0.8 0.14 0 0.82 0.14 0 
0.84 0.14 0 0.86 0.14 0 0.88 0.14 0 
0.9 0.14 0 0.92 0.14 0 0.94 0.14 0 
0.96 0.14 0 0.98 0.14 0 1 0.14 0 
0 0.16 0 0.02 0.16 0 0.04 0.16 0 
0.06 0.16 0 0.08 0.16 0 0.1 0.16 0 
0.12 0.16 0 0.14 0.16 0 0.16 0.16 0 
0.18 0.16 0 0.2 0.16 0 0.22 0.16 0 
0.24 0.16 0 0.26 0.16 0 0.28 0.16 0 
0.3 0.16 0 0.32 0.16 0 0.34 0.16 0 
0.36 0.16 0 0.38 0.16 0 0.4 0.16 0 
0.42 0.16 0 0.44 0.16 0 0.46 0.16 0 
0.48 0.16 0 0.5 0.16 0 0.52 0.16 0 
0.54 0.16 0 0.56 0.16 0 0.58 0.16 0 
0.6 0.16 0 0.62 0.16 0 0.64 0.16 0 
0.66 0.16 0 0.68 0.16 0 0.7 0.16 0 
0.72 0.16 0 0.74 0.16 0 0.76 0.16 0 
0.78 0.16 0 0.8 0.16 0 0.82 0.16 0 
0.84 0.16 0 0.86 0.16 0 0.88 0.16 0 
0.9 0.16 0 0.92 0.16 0 0.94 0.16 0 
0.96 0.16 0 0.98 0.16 0 1 0.16 0 
0 0.18 0 0.02 0.18 0 0.04 0.18 0 
0.06 0.18 0 0.08 0.18 0 0.1 0.18 0 
0.12 0.18 0 0.14 0.18 0 0.16 0.18 0 
0.18 0.18 0 0.2 0.18 0 0.22 0.18 0 
0.24 0.18 0 0.26 0.18 0 0.28 0.18 0 
0.3 0.18 0 0.32 0.18 0 0.34 0.18 0 
0.36 0.18 0 0.38 0.18 0 0.4 0.18 0 
0.42 0.18 0 0.44 0.18 0 0.46 0.18 0 
0.48 0.18 0 0.5 0.18 0 0.52 0.18 0 
0.54 0.18 0 0.56 0.18 0 0.58 0.18 0 
0.6 0.18 0 0.62 0.18 0 0.64 0.18 0 
0.66 0.18 0 0.68 0.18 0 0.7 0.18 0 
0.72 0.18 0 0.74 0.18 0 0.76 0.18 0 
0.78 0.18 0 0.8 0.18 0 0.82 0.18 0 
0.84 0.18 0 0.86 0.18 0 0.88 0.18 0 
0.9 0.18 0 0.92 0.18 0 0.94 0.18 0 
0.96 0.18 0 0.98 0.18 0 1 0.18 0 
0 0.2 0 0.02 0.2 0 0.04 0.2 0 
0.06 0.2 0 0.08 0.2 0 0.1 0.2 0 
0.12 0.2 0 0.14 0.2 0 0.16 0.2 0 
0.18 0.2 0 0.2 0.2 0 0.22 0.2 0 
0.24 0.2 0 0.26 0.2 0 0.28 0.2 0 
0.3 0.2 0 0.32 0.2 0 0.34 0.2 0 
0.36 0.2 0 0.38 0.2 0 0.4 0.2 0 
0.42 0.2 0 0.44 0.2 0 0.46 0.2 0 
0.48 0.2 0 0.5 0.2 0 0.52 0.2 0 
0.54 0.2 0 0.56 0.2 0 0.58 0.2 0 
0.6 0.2 0 0.62 0.2 0 0.64 0.2 0 
0.66 0.2 0 0.68 0.2 0 0.7 0.2 0 
0.72 0.2 0 0.74 0.2 0 0.76 0.2 0 
0.78 0.2 0 0.8 0.2 0 0.82 0.2 0 
0.84 0.2 0 0.86 0.2 0 0.88 0.2 0 
0.9 0.2 0 0.92 0.2 0 0.94 0.2 0 
0.96 0.2 0 0.98 0.2 0 1 0.2 0 
0 0.22 0 0.02 0.22 0 0.04 0.22 0 
0.06 0.22 0 0.08 0.22 0 0.1 0.22 0 
0.12 0.22 0 0.14 0.22 0 0.16 0.22 0 
0.18 0.22 0 0.2 0.22 0 0.22 0.22 0 
0.24 0.22 0 0.26 0.22 0 0.28 0.22 0 
0.3 0.22 0 0.32 0.22 0 0.34 0.22 0 
0.36 0.22 0 0.38 0.22 0 0.4 0.22 0 
0.42 0.22 0 0.44 0.22 0 0.46 0.22 0 
0.48 0.22 0 0.5 0.22 0 0.52 0.22 0 
0.54 0.22 0 0.56 0.22 0 0.58 0.22 0 
0.6 0.22 0 0.62 0.22 0 0.64 0.22 0 
0.66 0.22 0 0.68 0.22 0 0.7 0.22 0 
0.72 0.22 0 0.74 0.22 0 0.76 0.22 0 
0.78 0.22 0 0.8 0.22 0 0.82 0.22 0 
0.84 0.22 0 0.86 0.22 0 0.88 0.22 0 
0.9 0.22 0 0.92 0.22 0 0.94 0.22 0 
0.96 0.22 0 0.98 0.22 0 1 0.22 0 
0 0.24 0 0.02 0.24 0 0.04 0.24 0 
0.06 0.24 0 0.08 0.24 0 0.1 0.24 0 
0.12 0.24 0 0.14 0.24 0 0.16 0.24 0 
0.18 0.24 0 0.2 0.24 0 0.22 0.24 0 
0.24 0.24 0 0.26 0.24 0 0.28 0.24 0 
0.3 0.24 0 0.32 0.24 0 0.34 0.24 0 
0.36 0.24 0 0.38 0.24 0 0.4 0.24 0 
0.42 0.24 0 0.44 0.24 0 0.46 0.24 0 
0.48 0.24 0 0.5 0.24 0 0.52 0.24 0 
0.54 0.24 0 0.56 0.24 0 0.58 0.24 0 
0.6 0.24 0 0.62 0.24 0 0.64 0.24 0 
0.66 0.24 0 0.68 0.24 0 0.7 0.24 0 
0.72 0.24 0 0.74 0.24 0 0.76 0.24 0 
0.78 0.24 0 0.8 0.24 0 0.82 0.24 0 
0.84 0.24 0 0.86 0.24 0 0.88 0.24 0 
0.9 0.24 0 0.92 0.24 0 0.94 0.24 0 
0.96 0.24 0 0.98 0.24 0 1 0.24 0 
0 0.26 0 0.02 0.26 0 0.04 0.26 0 
0.06 0.26 0 0.08 0.26 0 0.1 0.26 0 
0.12 0.26 0 0.14 0.26 0 0.16 0.26 0 
0.18 0.26 0 0.2 0.26 0 0.22 0.26 0 
0.24 0.26 0 0.26 0.26 0 0.28 0.26 0 
0.3 0.26 0 0.32 0.26 0 0.34 0.26 0 
0.36 0.26 0 0.38 0.26 0 0.4 0.26 0 
0.42 0.26 0 0.44 0.26 0 0.46 0.26 0 
0.48 0.26 0 0.5 0.26 0 0.52 0.26 0 
0.54 0.26 0 0.56 0.26 0 0.58 0.26 0 
0.6 0.26 0 0.62 0.26 0 0.64 0.26 0 
0.66 0.26 0 0.68 0.26 0 0.7 0.26 0 
0.72 0.26 0 0.74 0.26 0 0.76 0.26 0 
0.78 0.26 0 0.8 0.26 0 0.82 0.26 0 
0.84 0.26 0 0.86 0.26 0 0.88 0.26 0 
0.9 0.26 0 0.92 0.26 0 0.94 0.26 0 
0.96 0.26 0 0.98 0.26 0 1 0.26 0 
0 0.28 0 0.02 0.28 0 0.04 0.28 0 
0.06 0.28 0 0.08 0.28 0 0.1 0.28 0 
0.12 0.28 0 0.14 0.28 0 0.16 0.28 0 
0.18 0.28 0 0.2 0.28 0 0.22 0.28 0 
0.24 0.28 0 0.26 0.28 0 0.28 0.28 0 
0.3 0.28 0 0.32 0.28 0 0.34 0.28 0 
0.36 0.28 0 0.38 0.28 0 0.4 0.28 0 
0.42 0.28 0 0.44 0.28 0 0.46 0.28 0 
0.48 0.28 0 0.5 0.28 0 0.52 0.28 0 
0.54 0.28 0 0.56 0.28 0 0.58 0.28 0 
0.6 0.28 0 0.62 0.28 0 0.64 0.28 0 
0.66 0.28 0 0.68 0.28 0 0.7 0.28 0 
0.72 0.28 0 0.74 0.28 0 0.76 0.28 0 
0.78 0.28 0 0.8 0.28 0 0.82 0.28 0 
0.84 0.28 0 0.86 0.28 0 0.88 0.28 0 
0.9 0.28 0 0.92 0.28 0 0.94 0.28 0 
0.96 0.28 0 0.98 0.28 0 1 0.28 0 
0 0.3 0 0.02 0.3 0 0.04 0.3 0 
0.06 0.3 0 0.08 0.3 0 0.1 0.3 0 
0.12 0.3 0 0.14 0.3 0 0.16 0.3 0 
0.18 0.3 0 0.2 0.3 0 0.22 0.3 0 
0.24 0.3 0 0.26 0.3 0 0.28 0.3 0 
0.3 0.3 0 0.32 0.3 0 0.34 0.3 0 
0.36 0.3 0 0.38 0.3 0 0.4 0.3 0 
0.42 0.3 0 0.44 0.3 0 0.46 0.3 0 
0.48 0.3 0 0.5 0.3 0 0.52 0.3 0 
0.54 0.3 0 0.56 0.3 0 0.58 0.3 0 
0.6 0.3 0 0.62 0.3 0 0.64 0.3 0 
0.66 0.3 0 0.68 0.3 0 0.7 0.3 0 
0.72 0.3 0 0.74 0.3 0 0.76 0.3 0 
0.78 0.3 0 0.8 0.3 0 0.82 0.3 0 
0.84 0.3 0 0.86 0.3 0 0.88 0.3 0 
0.9 0.3 0 0.92 0.3 0 0.94 0.3 0 
0.96 0.3 0 0.98 0.3 0 1 0.3 0 
0 0.32 0 0.02 0.32 0 0.04 0.32 0 
0.06 0.32 0 0.08 0.32 0 0.1 0.32 0 
0.12 0.32 0 0.14 0.32 0 0.16 0.32 0 
0.18 0.32 0 0.2 0.32 0 0.22 0.32 0 
0.24 0.32 0 0.26 0.32 0 0.28 0.32 0 
0.3 0.32 0 0.32 0.32 0 0.34 0.32 0 
0.36 0.32 0 0.38 0.32 0 0.4 0.32 0 
0.42 0.32 0 0.44 0.32 0 0.46 0.32 0 
0.48 0.32 0 0.5 0.32 0 0.52 0.32 0 
0.54 0.32 0 0.56 0.32 0 0.58 0.32 0 
[...]
CELL_DATA 2500
FIELD FieldData 2
pressure 1 2500 double
-0.0057239628404 -0.0057073556751 -0.0057270966155 -0.0057889634575 -0.0058855118123 -0.0060067098925 -0.0061461343971 -0.0063020890183 -0.0064770331028 
-0.006674212043 -0.0068975080922 -0.0071478819459 -0.0074233921978 -0.0077228814239 -0.0080412904572 -0.0083727036053 -0.0087087400835 -0.0090380854239 
-0.0093463235825 -0.0096162898477 -0.009828897481 -0.0099642108509 -0.010002594909 -0.0099258223678 -0.0097180463771 -0.0093667283203 -0.0088636367388 
-0.0082060174451 -0.0073980069793 -0.0064523598269 -0.0053945518564 -0.0042827514751 -0.0031586436419 -0.0020759246658 -0.0010955066049 -0.00028059787766 
0.00031003826825 0.00063069383906 0.00065845937768 0.00040258288839 -6.3496990754e-05 -0.00066026069239 -0.001292885946 -0.0018693949637 -0.0023270986253 
-0.0026516329158 -0.0028538004188 -0.0029528998524 -0.0029694177143 -0.0029303152541 -0.0057285667323 -0.0057158560365 -0.0057413036895 -0.0058027298106 
-0.005892658636 -0.0060032452078 -0.0061307087718 -0.0062745512528 -0.006438003424 -0.0066219834497 -0.0068315231486 -0.0070674398933 -0.0073286796561 
-0.0076147230581 -0.0079227846985 -0.0082477977383 -0.0085816889977 -0.0089130046657 -0.0092270644445 -0.0095065554097 -0.0097323838747 -0.0098846717297 
-0.0099437454197 -0.0098910503742 -0.0097100787887 -0.0093873755045 -0.0089135954593 -0.0082846018941 -0.0075024999617 -0.0065769713639 -0.0055698412967 
-0.0044941219705 -0.0034003446004 -0.002343994467 -0.0013857621225 -0.00058784949862 -7.6291067723e-06 0.00031086504541 0.00034691023334 0.00011317457175 
-0.00033714120775 -0.00087969038548 -0.0014564155273 -0.0019766947596 -0.0023805027263 -0.0026596500868 -0.0028302534635 -0.0029150059687 -0.0029329661398 
-0.0028928529722 -0.0057040921788 -0.0056954158629 -0.0057264163074 -0.005790170782 -0.0058776195507 -0.0059809111947 -0.0060995549681 -0.006230379518 
-0.0063812992492 -0.0065537220366 -0.0067516025445 -0.0069779648459 -0.0072345827048 -0.007522011778 -0.0078383533463 -0.008178487517 -0.0085336441645 
-0.008891456036 -0.0092364042816 -0.0095504770182 -0.0098139688457 -0.010006310193 -0.010106906131 -0.010096070936 -0.0099560841543 -0.0096722942076 
-0.009234209406 -0.0086362903634 -0.0078774669763 -0.0070048101479 -0.0060244193406 -0.0049704152339 -0.0038907949687 -0.002840716342 -0.0018805501702 
-0.0010721127627 -0.00047262083455 -0.00012645390438 -5.527799627e-05 -0.00024790263175 -0.00065268397795 -0.0011773408577 -0.0017150289953 -0.0022031870891 
-0.0025678763343 -0.0027963514781 -0.0029239541686 -0.0029785503674 -0.0029808379157 -0.002931436934 -0.0056414543257 -0.0056414521289 -0.0056808665011 
-0.0057502777084 -0.0058392137981 -0.0059393122856 -0.0060512233412 -0.0061747767427 -0.0063173980633 -0.0064844983784 -0.0066820450638 -0.0069154324288 
-0.0071883226216 -0.0075017935782 -0.0078534413624 -0.0082368652357 -0.0086416774627 -0.0090538974161 -0.0094565299733 -0.0098302223547 -0.010153960261 
-0.010405819997 -0.01056388899 -0.010607342252 -0.010517624866 -0.010279675706 -0.0098831062841 -0.0093233779393 -0.0086066043992 -0.0077696672613 
-0.0068134844223 -0.0057755411522 -0.0047017403897 -0.0036455131397 -0.0026657747899 -0.0018232923794 -0.0011750329533 -0.00076642723945 -0.00062202697274 
-0.00073596490103 -0.0010651329282 -0.0015300373197 -0.0020292279885 -0.0024809548071 -0.0028265769713 -0.0030211095448 -0.0031112153874 -0.0031350991346 
-0.0031196771084 -0.0030685921934 -0.0055356141479 -0.0055495813472 -0.0056015530248 -0.0056795362188 -0.0057730205976 -0.0058758779524 -0.005987431958 
-0.0061125474104 -0.006259748466 -0.0064383047863 -0.0066570792405 -0.0069232121438 -0.0072408211089 -0.0076100634712 -0.0080266547934 -0.008481897813 
-0.0089631050157 -0.0094541762004 -0.0099361961743 -0.010388059955 -0.010787151394 -0.011110206146 -0.011334376854 -0.011438425077 -0.011403972457 
-0.011216666853 -0.010867113311 -0.01035137425 -0.0096901756408 -0.0088830739234 -0.0079513092276 -0.0069279417487 -0.0058553833261 -0.0047839085322 
-0.0037696437544 -0.0028712670926 -0.0021449456064 -0.0016373629352 -0.0013772454307 -0.0013666652112 -0.0015746949521 -0.0019372944326 -0.0023672095864 
-0.0027739723091 -0.0030785432053 -0.0032723905794 -0.0033443814264 -0.0033527802677 -0.0033299361349 -0.0032868050311 -0.005384800395 -0.005418278629 
-0.0054853557734 -0.0055748670566 -0.0056793739298 -0.0057913257108 -0.0059140490991 -0.0060558841667 -0.0062282988346 -0.0064434220695 -0.0067118148485 
-0.0070407629788 -0.0074331140793 -0.0078867329394 -0.0083945860459 -0.0089452471258 -0.0095235163622 -0.010111016657 -0.010686816277 -0.011228068146 
-0.011710815486 -0.012111023083 -0.012405732738 -0.012574283111 -0.012599455056 -0.012468465819 -0.012173859471 -0.011714421945 -0.011102621648 
-0.010334123153 -0.0094311063421 -0.008423791043 -0.0073506572108 -0.0062577563114 -0.0051972044221 -0.0042244865834 -0.0033942106459 -0.002754151503 
-0.0023378787751 -0.0021569885589 -0.00219492849 -0.0024052328956 -0.00271677121 -0.0030465913744 -0.0033188444658 -0.0034933029373 -0.0035778181445 
-0.0035965385624 -0.0035829789105 -0.0035558128946 -0.0051935075234 -0.0052515913351 -0.005337206002 -0.0054428191116 -0.0055621325446 -0.0056939279315 
-0.005844200916 -0.0060242617895 -0.0062479137081 -0.006528451252 -0.0068761354633 -0.007296598988 -0.0077900851787 -0.0083514644742 -0.0089707872195 
-0.0096339413518 -0.010323274461 -0.011018255713 -0.011696111426 -0.012332612552 -0.012903085771 -0.01338351258 -0.013751674373 -0.013988213651 
-0.014077536261 -0.01400864212 -0.013775953527 -0.013380305467 -0.012821067158 -0.012097000624 -0.011227719811 -0.010239797956 -0.0091670799891 
-0.0080504543885 -0.006936914441 -0.0058776272882 -0.0049246877001 -0.0041263704728 -0.0035210307108 -0.003130356877 -0.0029533845761 -0.0029632830929 
-0.0031090052959 -0.0033233270564 -0.0035383147552 -0.0037078593797 -0.0038100368731 -0.0038479126152 -0.003859256569 -0.0038533872182 -0.0049776905491 
-0.0050648559324 -0.0051686986027 -0.0052930992652 -0.0054368781102 -0.0056031067596 -0.0058008020906 -0.0060432858479 -0.00634496753 -0.0067182145501 
-0.0071711515961 -0.0077064737956 -0.0083212237885 -0.0090072670359 -0.0097519018171 -0.01053848395 -0.011347126788 -0.012155356317 -0.012938920491 
-0.01367282497 -0.014332391261 -0.014894337375 -0.015337747109 -0.015644852977 -0.015801736497 -0.015798979178 -0.015632370626 -0.015303830705 
-0.014801295475 -0.014126570751 -0.01329623872 -0.012332714314 -0.011264610917 -0.010126854071 -0.0089603294606 -0.0078107786444 -0.0067266389965 
-0.0057556174293 -0.0049400061669 -0.0043111339419 -0.0038838345845 -0.0036522784127 -0.0035887531194 -0.0036468896681 -0.0037704103785 -0.0039066739369 
-0.0040187384485 -0.0041072408484 -0.0041551730782 -0.0041732259078 -0.0047646701371 -0.0048794483611 -0.0050032142374 -0.0051519192514 -0.0053311088739 
-0.00554775783 -0.005813022961 -0.0061405412269 -0.0065433075716 -0.0070310552218 -0.0076085722667 -0.0082750784501 -0.0090244775215 -0.0098457902455 
-0.010723693927 -0.011639209201 -0.012570364286 -0.013493049227 -0.014382110195 -0.015212409068 -0.015959883965 -0.016602459164 -0.017120736398 
-0.017498574058 -0.01772357992 -0.017787614497 -0.017687419723 -0.017425352731 -0.016981743514 -0.01636005075 -0.015573873405 -0.014641258551 
-0.013585214222 -0.012434154211 -0.011222076299 -0.0099882474906 -0.0087761402434 -0.0076313803296 -0.0065985976095 -0.0057172953949 -0.0050171542762 
-0.0045135056316 -0.004203933507 -0.0040670815618 -0.0040648108741 -0.0041489397743 -0.004273713026 -0.0043979932161 -0.0044812361842 -0.0045235881342 
-0.0045895577656 -0.0047285839584 -0.0048741905365 -0.0050535924002 -0.005279127998 -0.0055609553921 -0.0059108428176 -0.0063409031212 -0.0068612090908 
-0.0074778134732 -0.0081917111461 -0.0089987589963 -0.0098898266671 -0.010851133166 -0.011864835189 -0.012909646097 -0.013961724392 -0.01499583506 
-0.015986447775 -0.016908830515 -0.017739952743 -0.018459135009 -0.019048557033 -0.019493638245 -0.019783400924 -0.01991087417 -0.019873529017 
-0.019673782071 -0.019288594008 -0.018722037829 -0.017984802075 -0.017090594182 -0.016056764403 -0.014904968466 -0.013661778331 -0.012359072637 
-0.011033993918 -0.0097282556655 -0.0084866067066 -0.0073543351146 -0.0063738219183 -0.0055802973947 -0.0049970738589 -0.004630650986 -0.0044663896902 
-0.004466350424 -0.0045727808022 -0.0047187207205 -0.0048498808641 -0.004919595801 -0.0044915544957 -0.0046511159271 -0.0048191224934 -0.0050347215094 
-0.0053156876428 -0.0056738264031 -0.0061198429687 -0.0066630398043 -0.0073097130074 -0.0080619085235 -0.0089170173642 -0.0098676079996 -0.010901468739 
-0.012002007857 -0.013148750421 -0.014318215194 -0.015485116957 -0.016623525586 -0.01770802336 -0.018714652755 -0.01962158455 -0.020409615872 
-0.021062513749 -0.021567296363 -0.021914478626 -0.022098268851 -0.022116790278 -0.021972354572 -0.021642519084 -0.021131376589 -0.020446928301 
-0.019598827495 -0.018598998275 -0.017462422961 -0.016208036005 -0.014859652074 -0.013446818527 -0.012005403718 -0.010577675291 -0.0092115881884 
-0.0079589612531 -0.0068721774047 -0.0059989632465 -0.0053748023233 -0.005012915058 -0.0048933310539 -0.0049569812246 -0.0051162190345 -0.0052861955456 
-0.0053823086374 -0.0045060437749 -0.0046809111464 -0.0048717900109 -0.0051276858647 -0.0054699778615 -0.005910474468 -0.0064576894484 -0.0071174628058 
-0.0078921517465 -0.008780092026 -0.0097751861412 -0.010866625227 -0.01203903337 -0.013272786575 -0.014544803736 -0.015829748343 -0.01710123996 
-0.018333086081 -0.01950029745 -0.020579835365 -0.021551155665 -0.02239659131 -0.023101625906 -0.023655051477 -0.024049024845 -0.024279061403 
-0.024343994524 -0.024245950952 -0.02396623933 -0.023508945613 -0.02287971361 -0.022084617765 -0.021130698972 -0.020026701374 -0.018784074863 
-0.017418276063 -0.015950319771 -0.014408462406 -0.012829791202 -0.011261349156 -0.0097602422908 -0.0083919211971 -0.0072255100542 -0.0063248325373 
-0.0057340713848 -0.0054589575966 -0.0054501699054 -0.0056060066429 -0.005804721681 -0.0059279725849 -0.0046584716705 -0.0048438139374 -0.0050576755975 
-0.0053559166755 -0.0057614983664 -0.0062850742691 -0.0069324627221 -0.0077060394651 -0.0086046356943 -0.0096231097197 -0.010751813692 -0.011976456908 
-0.013278236716 -0.014634466435 -0.016019737415 -0.017407153476 -0.018769626068 -0.02008095817 -0.02131671259 -0.022454840584 -0.023476166028 
-0.024364728867 -0.025107931885 -0.025696555663 -0.026124617652 -0.026389089183 -0.026489603373 -0.026428179905 -0.026191946567 -0.025785257474 
-0.025211821143 -0.024474804881 -0.023577139112 -0.022522102745 -0.021314285723 -0.019961021559 -0.018474368165 -0.016873618265 -0.015188183387 
-0.013460497199 -0.011748258884 -0.010124870146 -0.008676326604 -0.0074922802249 -0.0066490150544 -0.0061839232036 -0.0060672784639 -0.0061909113103 
-0.0063997719377 -0.0065655952892 -0.0049633620411 -0.0051550234619 -0.0053912343173 -0.005731368409 -0.0061983143937 -0.0068010131174 -0.0075426647015 
-0.0084226766534 -0.0094367521111 -0.010576292903 -0.01182801996 -0.013173943408 -0.014591782024 -0.016056050847 -0.017539298869 -0.019013430192 
-0.020450859068 -0.021825507031 -0.023113535907 -0.02429397913 -0.025349218581 -0.026265190636 -0.027031452916 -0.027640987608 -0.02808979934 
-0.028376460947 -0.028501573238 -0.028467250373 -0.028267261721 -0.027906553392 -0.027387387815 -0.026710771711 -0.025876521209 -0.024883591112 
-0.0237308088 -0.022418206268 -0.020949109461 -0.019333115862 -0.01758996754 -0.015754061668 -0.013878900867 -0.012040126585 -0.010334891701 
-0.0088744146815 -0.0077661434495 -0.0070834152576 -0.0068267645753 -0.006897189206 -0.0071218101982 -0.0073182952932 -0.0054237753223 -0.0056182190392 
-0.0058750241321 -0.006254114965 -0.0067772725928 -0.0074516801548 -0.0082783969257 -0.0092544084269 -0.010372413272 -0.011620321904 -0.012981120659 
-0.0144330755 -0.015950722112 -0.017506104921 -0.019070082699 -0.020613562558 -0.022108604262 -0.023529271718 -0.024852428183 -0.026058397912 
-0.0271312788 -0.028059147816 -0.028833874216 -0.029450704204 -0.029907751974 -0.030205286871 -0.030345028792 -0.030329441347 -0.030158671329 
-0.029838314357 -0.029369686916 -0.028752477645 -0.027984542153 -0.027061909155 -0.025979161743 -0.024730403055 -0.023311122389 -0.021721266856 
-0.019969712535 -0.018080071587 -0.016097245475 -0.014093298873 -0.012170071043 -0.010454600589 -0.0090824533442 -0.008164804911 -0.0077407428442 
-0.0077328457199 -0.0079547340928 -0.0081857952403 -0.0060321291604 -0.0062260839993 -0.0065004662313 -0.0069135762907 -0.0074856013924 -0.0082222460749 
-0.0091230141597 -0.010182670097 -0.011390907359 -0.012732178002 -0.014185709616 -0.015726377286 -0.017325953394 -0.018954372926 -0.020581053657 
-0.022176078347 -0.023711173992 -0.025160665789 -0.026502356056 -0.027717981607 -0.028793620597 -0.029719590026 -0.030490078742 -0.031102673466 
-0.031557550555 -0.031856695793 -0.032003056541 -0.03199959399 -0.031851746071 -0.031565480418 -0.031141696697 -0.030579604912 -0.029876290224 
-0.029026379354 -0.028021940683 -0.026852925588 -0.02550853552 -0.023979983622 -0.022265106874 -0.020375017445 -0.018342437899 -0.016230421898 
-0.014138730978 -0.012203331244 -0.010582792086 -0.009425172114 -0.00881339227 -0.0087031429013 -0.0089058079315 -0.0091685181647 -0.0067717905157 
-0.0069619228242 -0.0072498046114 -0.0076907499675 -0.0083032133483 -0.0090918531615 -0.010054826817 -0.011184661201 -0.0124681731 -0.013886354263 
-0.015415078307 -0.017026368743 -0.018689617547 -0.020372993533 -0.022044685544 -0.023674001603 -0.025232478643 -0.026694978209 -0.028040333951 
-0.029251996147 -0.030318084333 -0.031231126821 -0.031987693038 -0.03258753756 -0.033032821489 -0.03332715802 -0.033474543457 -0.033478499394 
-0.033348259197 -0.033089636445 -0.032703623563 -0.032189705227 -0.031545255121 -0.030764878775 -0.029839870355 -0.028758041743 -0.027504373091 
-0.026063121803 -0.024422046248 -0.022579291455 -0.020552991098 -0.018392595199 -0.016189254368 -0.014080314509 -0.012240514641 -0.010851118812 
-0.010041054004 -0.0098087589667 -0.0099762802085 -0.010263379799 -0.007619172122 -0.0078019811253 -0.0080986795012 -0.0085608243362 -0.0092052287487 
-0.010035622229 -0.011048700501 -0.012234873972 -0.013578095117 -0.015056302267 -0.016642666714 -0.018306775806 -0.02001610132 -0.021737312871 
-0.023437465802 -0.025085277669 -0.026652401641 -0.028114323483 -0.02945124117 -0.030648360009 -0.031695791906 -0.032588368043 -0.033324783552 
-0.03390685015 -0.034338473317 -0.034624476078 -0.034769763775 -0.034778103987 -0.034661190735 -0.034424082622 -0.034068244861 -0.033593968572 
-0.032999668917 -0.032281040005 -0.03143014158 -0.0304346455 -0.029277706781 -0.027939084462 -0.026398440503 -0.024641794631 -0.022671701219 
-0.020520672338 -0.018265489354 -0.016037285182 -0.014018985276 -0.01241906548 -0.011411571299 -0.011044783401 -0.011165146576 -0.011474747786 
-0.0085460784056 -0.0087180820014 -0.0090188101411 -0.0094957741849 -0.010164122557 -0.011026359213 -0.012077692164 -0.013306409901 -0.014693930205 
-0.016215853083 -0.017843110165 -0.019543410047 -0.021282644812 -0.023026127315 -0.024740034115 -0.026392806697 -0.027956339213 -0.02940707698 
-0.030726631096 -0.031901904371 -0.032925139323 -0.033793170206 -0.034506716872 -0.035069342559 -0.035486125876 -0.035762853158 -0.035905053069 
-0.035915818077 -0.035809154422 -0.03558818744 -0.035255198448 -0.034811556728 -0.03425714729 -0.033589480387 -0.032802558431 -0.031885708784 
-0.030822627472 -0.029591339232 -0.028166169428 -0.026523074356 -0.024649560564 -0.022559454342 -0.020310710348 -0.018021249905 -0.015873704498 
-0.014095951742 -0.012903219851 -0.012397099768 -0.012459714707 -0.012782886631 -0.0095221788114 -0.009680168869 -0.0099804335025 -0.010466479858 
-0.011151376969 -0.012036117298 -0.013114318047 -0.014372309336 -0.015789660717 -0.017340153861 -0.018993072569 -0.020714675486 -0.022469461809 
-0.024221726708 -0.025937071927 -0.027583860558 -0.029134543119 -0.030566604704 -0.031863008473 -0.033012516388 -0.034009194086 -0.034851807939 
-0.035542812557 -0.036086877867 -0.036489945225 -0.036758093314 -0.036896942673 -0.036910892421 -0.036811606883 -0.036602216745 -0.036285550714 
-0.035864006185 -0.035339048908 -0.034710354234 -0.033974663603 -0.033124254499 -0.03214532832 -0.031016866188 -0.029710997189 -0.0281966214 
-0.026448218021 -0.024460968559 -0.022271243672 -0.019977922265 -0.017755037195 -0.01584084052 -0.014485072754 -0.013842395239 -0.013839568592 
-0.014168077465 -0.010517333876 -0.010658431454 -0.010954225944 -0.011444185785 -0.012138843463 -0.013037382532 -0.014131736835 -0.015406813959 
-0.01684088576 -0.018406470494 -0.020071712728 -0.02180165677 -0.023559805295 -0.025309741526 -0.027016769851 -0.028649481467 -0.030180992857 
-0.031589782916 -0.032860309506 -0.033982923811 -0.034953459094 -0.03577236967 -0.036443187461 -0.03697143192 -0.037363264118 -0.037624713291 
-0.037761286848 -0.037778476672 -0.037684799827 -0.03748346361 -0.037177703794 -0.036770820005 -0.036265784795 -0.035664557014 -0.034966873791 
-0.034168648065 -0.033259959854 -0.03222293555 -0.031030571063 -0.029648322403 -0.028040917625 -0.026186665302 -0.02409951288 -0.021855112775 
-0.019611426111 -0.017607576136 -0.016119062055 -0.015349991659 -0.015277784844 -0.015604266193 -0.011503585432 -0.011624765378 -0.011912417566 
-0.012401570861 -0.01309979408 -0.014004065231 -0.015104890941 -0.016386244092 -0.017825565933 -0.019394653288 -0.021060801001 -0.02278823772 
-0.024539810216 -0.026278727963 -0.027970325353 -0.029583548377 -0.03109218459 -0.032475796806 -0.033720144052 -0.034817084916 -0.035764018968 
-0.036562446165 -0.037216754083 -0.037732719912 -0.038116409479 -0.038373632384 -0.038509399442 -0.038529447338 -0.038440254693 -0.038244320617 
-0.03794519719 -0.037546962888 -0.037054001251 -0.036470313345 -0.035798519673 -0.035038309553 -0.034184229777 -0.03322304188 -0.0321312815 
-0.030874638196 -0.02941213212 -0.027708469774 -0.025756270382 -0.023605711283 -0.02139262614 -0.019347825087 -0.017762553243 -0.016883871264 
-0.016742524989 -0.017060944124 -0.012457319219 -0.012552677752 -0.012829391849 -0.013313574658 -0.014009709017 -0.014912503983 -0.016011363828 
-0.017289657814 -0.018724497497 -0.020287288703 -0.021944836897 -0.023660944146 -0.025398183902 -0.027119752689 -0.028791171049 -0.030381816365 
-0.031866192196 -0.033224835708 -0.03444468093 -0.035518925064 -0.036445937218 -0.037228018506 -0.037869902854 -0.038377291548 -0.03875605923 
-0.039011433008 -0.039148010219 -0.03916993723 -0.03908455635 -0.038892031683 -0.03859632479 -0.038202261337 -0.037715354568 -0.037141342512 
-0.036485319031 -0.035750356566 -0.034935515556 -0.034032991261 -0.033024717525 -0.031879861662 -0.030556053221 -0.029008664066 -0.027211747611 
-0.025189814681 -0.023052406137 -0.021013902915 -0.019370903098 -0.01840473137 -0.018198721583 -0.01850475344 -0.013353347718 -0.013425523762 
-0.013682590045 -0.01415808564 -0.014847181465 -0.015742264741 -0.016831946488 -0.018099305349 -0.019521461081 -0.021069750695 -0.022710902496 
-0.024408711112 -0.02612586096 -0.027825757158 -0.029474248246 -0.031041187711 -0.032501752915 -0.033837314678 -0.035035833303 -0.036091305802 
-0.03700275035 -0.037772850518 -0.038406304525 -0.038908702995 -0.039285358325 -0.039540867448 -0.039678964642 -0.039703002131 -0.039620337601 
-0.039429575736 -0.039134945055 -0.038741829462 -0.038256644265 -0.037686418425 -0.037038127546 -0.036317713921 -0.035528391515 -0.034667840921 
-0.033724427956 -0.032673257252 -0.031474451642 -0.030078733825 -0.028445667883 -0.026575850807 -0.02455050071 -0.022561130256 -0.020899760376 
-0.019871901832 -0.019609605595 -0.019900798973 -0.01416870536 -0.014229070601 -0.014460667592 -0.014916530161 -0.015594696308 -0.016476596172 