# vtk DataFile Version 4.1
vtk output
ASCII
DATASET STRUCTURED_GRID
DIMENSIONS 51 51 1
POINTS 2601 float
0 0 0 0.02 0 0 0.04 0 0 
0.06 0 0 0.08 0 0 0.1 0 0 
0.12 0 0 0.14 0 0 0.16 0 0 
0.18 0 0 0.2 0 0 0.22 0 0 
0.24 0 0 0.26 0 0 0.28 0 0 
0.3 0 0 0.32 0 0 0.34 0 0 
0.36 0 0 0.38 0 0 0.4 0 0 
0.42 0 0 0.44 0 0 0.46 0 0 
0.48 0 0 0.5 0 0 0.52 0 0 
0.54 0 0 0.56 0 0 0.58 0 0 
0.6 0 0 0.62 0 0 0.64 0 0 
0.66 0 0 0.68 0 0 0.7 0 0 
0.72 0 0 0.74 0 0 0.76 0 0 
0.78 0 0 0.8 0 0 0.82 0 0 
0.84 0 0 0.86 0 0 0.88 0 0 
0.9 0 0 0.92 0 0 0.94 0 0 
0.96 0 0 0.98 0 0 1 0 0 
0 0.02 0 0.02 0.02 0 0.04 0.02 0 
0.06 0.02 0 0.08 0.02 0 0.1 0.02 0 
0.12 0.02 0 0.14 0.02 0 0.16 0.02 0 
0.18 0.02 0 0.2 0.02 0 0.22 0.02 0 
0.24 0.02 0 0.26 0.02 0 0.28 0.02 0 
0.3 0.02 0 0.32 0.02 0 0.34 0.02 0 
0.36 0.02 0 0.38 0.02 0 0.4 0.02 0 
0.42 0.02 0 0.44 0.02 0 0.46 0.02 0 
0.48 0.02 0 0.5 0.02 0 0.52 0.02 0 
0.54 0.02 0 0.56 0.02 0 0.58 0.02 0 
0.6 0.02 0 0.62 0.02 0 0.64 0.02 0 
0.66 0.02 0 0.68 0.02 0 0.7 0.02 0 
0.72 0.02 0 0.74 0.02 0 0.76 0.02 0 
0.78 0.02 0 0.8 0.02 0 0.82 0.02 0 
0.84 0.02 0 0.86 0.02 0 0.88 0.02 0 
0.9 0.02 0 0.92 0.02 0 0.94 0.02 0 
0.96 0.02 0 0.98 0.02 0 1 0.02 0 
0 0.04 0 0.02 0.04 0 0.04 0.04 0 
0.06 0.04 0 0.08 0.04 0 0.1 0.04 0 
0.12 0.04 0 0.14 0.04 0 0.16 0.04 0 
0.18 0.04 0 0.2 0.04 0 0.22 0.04 0 
0.24 0.04 0 0.26 0.04 0 0.28 0.04 0 
0.3 0.04 0 0.32 0.04 0 0.34 0.04 0 
0.36 0.04 0 0.38 0.04 0 0.4 0.04 0 
0.42 0.04 0 0.44 0.04 0 0.46 0.04 0 
0.48 0.04 0 0.5 0.04 0 0.52 0.04 0 
0.54 0.04 0 0.56 0.04 0 0.58 0.04 0 
0.6 0.04 0 0.62 0.04 0 0.64 0.04 0 
0.66 0.04 0 0.68 0.04 0 0.7 0.04 0 
0.72 0.04 0 0.74 0.04 0 0.76 0.04 0 
0.78 0.04 0 0.8 0.04 0 0.82 0.04 0 
0.84 0.04 0 0.86 0.04 0 0.88 0.04 0 
0.9 0.04 0 0.92 0.04 0 0.94 0.04 0 
0.96 0.04 0 0.98 0.04 0 1 0.04 0 
0 0.06 0 0.02 0.06 0 0.04 0.06 0 
0.06 0.06 0 0.08 0.06 0 0.1 0.06 0 
0.12 0.06 0 0.14 0.06 0 0.16 0.06 0 
0.18 0.06 0 0.2 0.06 0 0.22 0.06 0 
0.24 0.06 0 0.26 0.06 0 0.28 0.06 0 
0.3 0.06 0 0.32 0.06 0 0.34 0.06 0 
0.36 0.06 0 0.38 0.06 0 0.4 0.06 0 
0.42 0.06 0 0.44 0.06 0 0.46 0.06 0 
0.48 0.06 0 0.5 0.06 0 0.52 0.06 0 
0.54 0.06 0 0.56 0.06 0 0.58 0.06 0 
0.6 0.06 0 0.62 0.06 0 0.64 0.06 0 
0.66 0.06 0 0.68 0.06 0 0.7 0.06 0 
0.72 0.06 0 0.74 0.06 0 0.76 0.06 0 
0.78 0.06 0 0.8 0.06 0 0.82 0.06 0 
0.84 0.06 0 0.86 0.06 0 0.88 0.06 0 
0.9 0.06 0 0.92 0.06 0 0.94 0.06 0 
0.96 0.06 0 0.98 0.06 0 1 0.06 0 
0 0.08 0 0.02 0.08 0 0.04 0.08 0 
0.06 0.08 0 0.08 0.08 0 0.1 0.08 0 
0.12 0.08 0 0.14 0.08 0 0.16 0.08 0 
0.18 0.08 0 0.2 0.08 0 0.22 0.08 0 
0.24 0.08 0 0.26 0.08 0 0.28 0.08 0 
0.3 0.08 0 0.32 0.08 0 0.34 0.08 0 
0.36 0.08 0 0.38 0.08 0 0.4 0.08 0 
0.42 0.08 0 0.44 0.08 0 0.46 0.08 0 
0.48 0.08 0 0.5 0.08 0 0.52 0.08 0 
0.54 0.08 0 0.56 0.08 0 0.58 0.08 0 
0.6 0.08 0 0.62 0.08 0 0.64 0.08 0 
0.66 0.08 0 0.68 0.08 0 0.7 0.08 0 
0.72 0.08 0 0.74 0.08 0 0.76 0.08 0 
0.78 0.08 0 0.8 0.08 0 0.82 0.08 0 
0.84 0.08 0 0.86 0.08 0 0.88 0.08 0 
0.9 0.08 0 0.92 0.08 0 0.94 0.08 0 
0.96 0.08 0 0.98 0.08 0 1 0.08 0 
0 0.1 0 0.02 0.1 0 0.04 0.1 0 
0.06 0.1 0 0.08 0.1 0 0.1 0.1 0 
0.12 0.1 0 0.14 0.1 0 0.16 0.1 0 
0.18 0.1 0 0.2 0.1 0 0.22 0.1 0 
0.24 0.1 0 0.26 0.1 0 0.28 0.1 0 
0.3 0.1 0 0.32 0.1 0 0.34 0.1 0 
0.36 0.1 0 0.38 0.1 0 0.4 0.1 0 
0.42 0.1 0 0.44 0.1 0 0.46 0.1 0 
0.48 0.1 0 0.5 0.1 0 0.52 0.1 0 
0.54 0.1 0 0.56 0.1 0 0.58 0.1 0 
0.6 0.1 0 0.62 0.1 0 0.64 0.1 0 
0.66 0.1 0 0.68 0.1 0 0.7 0.1 0 
0.72 0.1 0 0.74 0.1 0 0.76 0.1 0 
0.78 0.1 0 0.8 0.1 0 0.82 0.1 0 
0.84 0.1 0 0.86 0.1 0 0.88 0.1 0 
0.9 0.1 0 0.92 0.1 0 0.94 0.1 0 
0.96 0.1 0 0.98 0.1 0 1 0.1 0 
0 0.12 0 0.02 0.12 0 0.04 0.12 0 
0.06 0.12 0 0.08 0.12 0 0.1 0.12 0 
0.12 0.12 0 0.14 0.12 0 0.16 0.12 0 
0.18 0.12 0 0.2 0.12 0 0.22 0.12 0 
0.24 0.12 0 0.26 0.12 0 0.28 0.12 0 
0.3 0.12 0 0.32 0.12 0 0.34 0.12 0 
0.36 0.12 0 0.38 0.12 0 0.4 0.12 0 
0.42 0.12 0 0.44 0.12 0 0.46 0.12 0 
0.48 0.12 0 0.5 0.12 0 0.52 0.12 0 
0.54 0.12 0 0.56 0.12 0 0.58 0.12 0 
0.6 0.12 0 0.62 0.12 0 0.64 0.12 0 
0.66 0.12 0 0.68 0.12 0 0.7 0.12 0 
0.72 0.12 0 0.74 0.12 0 0.76 0.12 0 
0.78 0.12 0 0.8 0.12 0 0.82 0.12 0 
0.84 0.12 0 0.86 0.12 0 0.88 0.12 0 
0.9 0.12 0 0.92 0.12 0 0.94 0.12 0 
0.96 0.12 0 0.98 0.12 0 1 0.12 0 
0 0.14 0 0.02 0.14 0 0.04 0.14 0 
0.06 0.14 0 0.08 0.14 0 0.1 0.14 0 
0.12 0.14 0 0.14 0.14 0 0.16 0.14 0 
0.18 0.14 0 0.2 0.14 0 0.22 0.14 0 
0.24 0.14 0 0.26 0.14 0 0.28 0.14 0 
0.3 0.14 0 0.32 0.14 0 0.34 0.14 0 
0.36 0.14 0 0.38 0.14 0 0.4 0.14 0 
0.42 0.14 0 0.44 0.14 0 0.46 0.14 0 
0.48 0.14 0 0.5 0.14 0 0.52 0.14 0 
0.54 0.14 0 0.56 0.14 0 0.58 0.14 0 
0.6 0.14 0 0.62 0.14 0 0.64 0.14 0 
0.66 0.14 0 0.68 0.14 0 0.7 0.14 0 
0.72 0.14 0 0.74 0.14 0 0.76 0.14 0 
0.78 0.14 0 0.8 0.14 0 0.82 0.14 0 
0.84 0.14 0 0.86 0.14 0 0.88 0.14 0 
0.9 0.14 0 0.92 0.14 0 0.94 0.14 0 
0.96 0.14 0 0.98 0.14 0 1 0.14 0 
0 0.16 0 0.02 0.16 0 0.04 0.16 0 
0.06 0.16 0 0.08 0.16 0 0.1 0.16 0 
0.12 0.16 0 0.14 0.16 0 0.16 0.16 0 
0.18 0.16 0 0.2 0.16 0 0.22 0.16 0 
0.24 0.16 0 0.26 0.16 0 0.28 0.16 0 
0.3 0.16 0 0.32 0.16 0 0.34 0.16 0 
0.36 0.16 0 0.38 0.16 0 0.4 0.16 0 
0.42 0.16 0 0.44 0.16 0 0.46 0.16 0 
0.48 0.16 0 0.5 0.16 0 0.52 0.16 0 
0.54 0.16 0 0.56 0.16 0 0.58 0.16 0 
0.6 0.16 0 0.62 0.16 0 0.64 0.16 0 
0.66 0.16 0 0.68 0.16 0 0.7 0.16 0 
0.72 0.16 0 0.74 0.16 0 0.76 0.16 0 
0.78 0.16 0 0.8 0.16 0 0.82 0.16 0 
0.84 0.16 0 0.86 0.16 0 0.88 0.16 0 
0.9 0.16 0 0.92 0.16 0 0.94 0.16 0 
0.96 0.16 0 0.98 0.16 0 1 0.16 0 
0 0.18 0 0.02 0.18 0 0.04 0.18 0 
0.06 0.18 0 0.08 0.18 0 0.1 0.18 0 
0.12 0.18 0 0.14 0.18 0 0.16 0.18 0 
0.18 0.18 0 0.2 0.18 0 0.22 0.18 0 
0.24 0.18 0 0.26 0.18 0 0.28 0.18 0 
0.3 0.18 0 0.32 0.18 0 0.34 0.18 0 
0.36 0.18 0 0.38 0.18 0 0.4 0.18 0 
0.42 0.18 0 0.44 0.18 0 0.46 0.18 0 
0.48 0.18 0 0.5 0.18 0 0.52 0.18 0 
0.54 0.18 0 0.56 0.18 0 0.58 0.18 0 
0.6 0.18 0 0.62 0.18 0 0.64 0.18 0 
0.66 0.18 0 0.68 0.18 0 0.7 0.18 0 
0.72 0.18 0 0.74 0.18 0 0.76 0.18 0 
0.78 0.18 0 0.8 0.18 0 0.82 0.18 0 
0.84 0.18 0 0.86 0.18 0 0.88 0.18 0 
0.9 0.18 0 0.92 0.18 0 0.94 0.18 0 
0.96 0.18 0 0.98 0.18 0 1 0.18 0 
0 0.2 0 0.02 0.2 0 0.04 0.2 0 
0.06 0.2 0 0.08 0.2 0 0.1 0.2 0 
0.12 0.2 0 0.14 0.2 0 0.16 0.2 0 
0.18 0.2 0 0.2 0.2 0 0.22 0.2 0 
0.24 0.2 0 0.26 0.2 0 0.28 0.2 0 
0.3 0.2 0 0.32 0.2 0 0.34 0.2 0 
0.36 0.2 0 0.38 0.2 0 0.4 0.2 0 
0.42 0.2 0 0.44 0.2 0 0.46 0.2 0 
0.48 0.2 0 0.5 0.2 0 0.52 0.2 0 
0.54 0.2 0 0.56 0.2 0 0.58 0.2 0 
0.6 0.2 0 0.62 0.2 0 0.64 0.2 0 
0.66 0.2 0 0.68 0.2 0 0.7 0.2 0 
0.72 0.2 0 0.74 0.2 0 0.76 0.2 0 
0.78 0.2 0 0.8 0.2 0 0.82 0.2 0 
0.84 0.2 0 0.86 0.2 0 0.88 0.2 0 
0.9 0.2 0 0.92 0.2 0 0.94 0.2 0 
0.96 0.2 0 0.98 0.2 0 1 0.2 0 
0 0.22 0 0.02 0.22 0 0.04 0.22 0 
0.06 0.22 0 0.08 0.22 0 0.1 0.22 0 
0.12 0.22 0 0.14 0.22 0 0.16 0.22 0 
0.18 0.22 0 0.2 0.22 0 0.22 0.22 0 
0.24 0.22 0 0.26 0.22 0 0.28 0.22 0 
0.3 0.22 0 0.32 0.22 0 0.34 0.22 0 
0.36 0.22 0 0.38 0.22 0 0.4 0.22 0 
0.42 0.22 0 0.44 0.22 0 0.46 0.22 0 
0.48 0.22 0 0.5 0.22 0 0.52 0.22 0 
0.54 0.22 0 0.56 0.22 0 0.58 0.22 0 
0.6 0.22 0 0.62 0.22 0 0.64 0.22 0 
0.66 0.22 0 0.68 0.22 0 0.7 0.22 0 
0.72 0.22 0 0.74 0.22 0 0.76 0.22 0 
0.78 0.22 0 0.8 0.22 0 0.82 0.22 0 
0.84 0.22 0 0.86 0.22 0 0.88 0.22 0 
0.9 0.22 0 0.92 0.22 0 0.94 0.22 0 
0.96 0.22 0 0.98 0.22 0 1 0.22 0 
0 0.24 0 0.02 0.24 0 0.04 0.24 0 
0.06 0.24 0 0.08 0.24 0 0.1 0.24 0 
0.12 0.24 0 0.14 0.24 0 0.16 0.24 0 
0.18 0.24 0 0.2 0.24 0 0.22 0.24 0 
0.24 0.24 0 0.26 0.24 0 0.28 0.24 0 
0.3 0.24 0 0.32 0.24 0 0.34 0.24 0 
0.36 0.24 0 0.38 0.24 0 0.4 0.24 0 
0.42 0.24 0 0.44 0.24 0 0.46 0.24 0 
0.48 0.24 0 0.5 0.24 0 0.52 0.24 0 
0.54 0.24 0 0.56 0.24 0 0.58 0.24 0 
0.6 0.24 0 0.62 0.24 0 0.64 0.24 0 
0.66 0.24 0 0.68 0.24 0 0.7 0.24 0 
0.72 0.24 0 0.74 0.24 0 0.76 0.24 0 
0.78 0.24 0 0.8 0.24 0 0.82 0.24 0 
0.84 0.24 0 0.86 0.24 0 0.88 0.24 0 
0.9 0.24 0 0.92 0.24 0 0.94 0.24 0 
0.96 0.24 0 0.98 0.24 0 1 0.24 0 
0 0.26 0 0.02 0.26 0 0.04 0.26 0 
0.06 0.26 0 0.08 0.26 0 0.1 0.26 0 
0.12 0.26 0 0.14 0.26 0 0.16 0.26 0 
0.18 0.26 0 0.2 0.26 0 0.22 0.26 0 
0.24 0.26 0 0.26 0.26 0 0.28 0.26 0 
0.3 0.26 0 0.32 0.26 0 0.34 0.26 0 
0.36 0.26 0 0.38 0.26 0 0.4 0.26 0 
0.42 0.26 0 0.44 0.26 0 0.46 0.26 0 
0.48 0.26 0 0.5 0.26 0 0.52 0.26 0 
0.54 0.26 0 0.56 0.26 0 0.58 0.26 0 
0.6 0.26 0 0.62 0.26 0 0.64 0.26 0 
0.66 0.26 0 0.68 0.26 0 0.7 0.26 0 
0.72 0.26 0 0.74 0.26 0 0.76 0.26 0 
0.78 0.26 0 0.8 0.26 0 0.82 0.26 0 
0.84 0.26 0 0.86 0.26 0 0.88 0.26 0 
0.9 0.26 0 0.92 0.26 0 0.94 0.26 0 
0.96 0.26 0 0.98 0.26 0 1 0.26 0 
0 0.28 0 0.02 0.28 0 0.04 0.28 0 
0.06 0.28 0 0.08 0.28 0 0.1 0.28 0 
0.12 0.28 0 0.14 0.28 0 0.16 0.28 0 
0.18 0.28 0 0.2 0.28 0 0.22 0.28 0 
0.24 0.28 0 0.26 0.28 0 0.28 0.28 0 
0.3 0.28 0 0.32 0.28 0 0.34 0.28 0 
0.36 0.28 0 0.38 0.28 0 0.4 0.28 0 
0.42 0.28 0 0.44 0.28 0 0.46 0.28 0 
0.48 0.28 0 0.5 0.28 0 0.52 0.28 0 
0.54 0.28 0 0.56 0.28 0 0.58 0.28 0 
0.6 0.28 0 0.62 0.28 0 0.64 0.28 0 
0.66 0.28 0 0.68 0.28 0 0.7 0.28 0 
0.72 0.28 0 0.74 0.28 0 0.76 0.28 0 
0.78 0.28 0 0.8 0.28 0 0.82 0.28 0 
0.84 0.28 0 0.86 0.28 0 0.88 0.28 0 
0.9 0.28 0 0.92 0.28 0 0.94 0.28 0 
0.96 0.28 0 0.98 0.28 0 1 0.28 0 
0 0.3 0 0.02 0.3 0 0.04 0.3 0 
0.06 0.3 0 0.08 0.3 0 0.1 0.3 0 
0.12 0.3 0 0.14 0.3 0 0.16 0.3 0 
0.18 0.3 0 0.2 0.3 0 0.22 0.3 0 
0.24 0.3 0 0.26 0.3 0 0.28 0.3 0 
0.3 0.3 0 0.32 0.3 0 0.34 0.3 0 
0.36 0.3 0 0.38 0.3 0 0.4 0.3 0 
0.42 0.3 0 0.44 0.3 0 0.46 0.3 0 
0.48 0.3 0 0.5 0.3 0 0.52 0.3 0 
0.54 0.3 0 0.56 0.3 0 0.58 0.3 0 
0.6 0.3 0 0.62 0.3 0 0.64 0.3 0 
0.66 0.3 0 0.68 0.3 0 0.7 0.3 0 
0.72 0.3 0 0.74 0.3 0 0.76 0.3 0 
0.78 0.3 0 0.8 0.3 0 0.82 0.3 0 
0.84 0.3 0 0.86 0.3 0 0.88 0.3 0 
0.9 0.3 0 0.92 0.3 0 0.94 0.3 0 
0.96 0.3 0 0.98 0.3 0 1 0.3 0 
0 0.32 0 0.02 0.32 0 0.04 0.32 0 
0.06 0.32 0 0.08 0.32 0 0.1 0.32 0 
0.12 0.32 0 0.14 0.32 0 0.16 0.32 0 
0.18 0.32 0 0.2 0.32 0 0.22 0.32 0 
0.24 0.32 0 0.26 0.32 0 0.28 0.32 0 
0.3 0.32 0 0.32 0.32 0 0.34 0.32 0 
0.36 0.32 0 0.38 0.32 0 0.4 0.32 0 
0.42 0.32 0 0.44 0.32 0 0.46 0.32 0 
0.48 0.32 0 0.5 0.32 0 0.52 0.32 0 
0.54 0.32 0 0.56 0.32 0 0.58 0.32 0 
[...]
CELL_DATA 2500
FIELD FieldData 2
pressure 1 2500 double
-0.0069169812016 -0.0069241929234 -0.0069308024129 -0.0069330770686 -0.0069296546532 -0.0069202892121 -0.0069051358224 -0.0068843937632 -0.0068581711822 
-0.0068264537764 -0.0067891088753 -0.0067458991926 -0.0066965039519 -0.0066405280324 -0.0065775136748 -0.0065069507036 -0.0064282883951 -0.006340944813 
-0.0062443273095 -0.0061378577931 -0.0060210028179 -0.0058933139306 -0.0057544773966 -0.0056043719242 -0.0054431327802 -0.0052712214364 -0.0050894964267 
-0.0048992832191 -0.0047024499412 -0.0045017189408 -0.0043009037012 -0.0041034587099 -0.003913331401 -0.0037347198661 -0.0035718020949 -0.0034284293894 
-0.0033078006573 -0.0032121514028 -0.0031424998951 -0.0030984942321 -0.0030783937787 -0.0030791968454 -0.0030968987083 -0.0031268362265 -0.00316405519 
-0.0032036322815 -0.003240872507 -0.0032714895854 -0.0032915579999 -0.0032981615409 -0.006909767843 -0.0069171555475 -0.0069217368082 -0.0069219287052 
-0.0069169556516 -0.0069065908211 -0.0068908357177 -0.0068697398587 -0.0068433056857 -0.0068114545703 -0.0067740208603 -0.0067307587823 -0.0066813478818 
-0.0066254036376 -0.0065624839185 -0.0064920995177 -0.0064137174421 -0.0063267797843 -0.006230719014 -0.0061249795107 -0.006009049944 -0.0058825012939 
-0.0057450334708 -0.0055965315311 -0.0054371284049 -0.0052672728696 -0.0050877963325 -0.0048999713074 -0.0047055305908 -0.004507688531 -0.0043097172421 
-0.0041151055781 -0.0039277695335 -0.0037518496471 -0.0035914572381 -0.0034503735763 -0.0033317261329 -0.00323767741 -0.0031691713747 -0.0031257818311 
-0.0031056967934 -0.0031058516832 -0.0031221950964 -0.0031500438118 -0.0031844668845 -0.003220640925 -0.003254139015 -0.0032811697051 -0.003298739585 
-0.0033047993647 -0.0069034230524 -0.006913249015 -0.0069177624026 -0.0069169933975 -0.0069109772732 -0.0068997842453 -0.0068834811639 -0.0068620865553 
-0.0068355525385 -0.0068037564801 -0.0067665042571 -0.0067235346433 -0.0066745232948 -0.0066190892349 -0.0065568006653 -0.0064871728965 -0.0064096848932 
-0.0063237845914 -0.0062289046484 -0.0061244848213 -0.0060099992686 -0.0058849928531 -0.0057491279317 -0.0056022382991 -0.0054443940526 -0.0052759724952 
-0.0050977326144 -0.0049108833884 -0.0047171244936 -0.0045199869525 -0.0043221848947 -0.0041273668261 -0.0039395762491 -0.0037630888318 -0.0036021666701 
-0.003460749732 -0.0033421127266 -0.0032485284192 -0.0031809868719 -0.003139022328 -0.0031206893226 -0.0031227070608 -0.0031407589093 -0.0031698988324 
-0.003204996669 -0.0032411556082 -0.0032740641979 -0.0033002752102 -0.0033174182637 -0.0033241728122 -0.0069030698013 -0.0069155502842 -0.0069207459521 
-0.006919719387 -0.0069131520795 -0.0069014522591 -0.0068848248587 -0.0068633281226 -0.0068369081208 -0.0068054249955 -0.0067686682981 -0.0067263656659 
-0.0066781901417 -0.0066237629714 -0.0065626497728 -0.0064943719835 -0.0064184033993 -0.0063341826827 -0.0062411238185 -0.0061386337662 -0.0060261384607 
-0.0059031176031 -0.0057691482263 -0.0056239611418 -0.0054675087013 -0.0053000438221 -0.005122210457 -0.0049351439783 -0.0047405975321 -0.0045419959818 
-0.0043419443698 -0.0041442641464 -0.0039532218644 -0.0037733704291 -0.0036092935438 -0.0034652729933 -0.0033449085418 -0.0032507338586 -0.0031838858962 
-0.003143889743 -0.0031286146378 -0.00313443311 -0.0031565744932 -0.0031896195202 -0.0032280435852 -0.0032667173468 -0.0033013030145 -0.0033285381112 
-0.0033464034893 -0.0033541380268 -0.0069120691892 -0.0069267757075 -0.0069328218201 -0.006931917805 -0.006925202312 -0.0069133523849 -0.0068967128699 
-0.0068754018025 -0.0068493870985 -0.0068185307358 -0.0067826193525 -0.0067413801108 -0.0066944859559 -0.0066415548506 -0.0065821552684 -0.0065157996877 
-0.0064419509749 -0.006360023439 -0.0062693926359 -0.0061694093068 -0.0060594219738 -0.0059388087496 -0.005807021234 -0.005663641303 -0.0055084545229 
-0.0053415386253 -0.0051633682196 -0.0049749345279 -0.004778227385 -0.0045761076252 -0.0043715865125 -0.0041686473532 -0.0039718474968 -0.0037861313123 
-0.0036165485418 -0.0034678838329 -0.003344222555 -0.0032484992077 -0.0031820929797 -0.0031445487794 -0.0031334987122 -0.0031448350286 -0.0031731391418 
-0.0032122998718 -0.0032561990515 -0.0032993163831 -0.0033371600292 -0.0033665176226 -0.0033855432267 -0.0033937347529 -0.0069326924206 -0.0069490911548 
-0.0069559265529 -0.006955340689 -0.0069487819929 -0.0069371165312 -0.0069207969276 -0.0068999998479 -0.0068747195656 -0.0068448339729 -0.0068101378783 
-0.0067703638771 -0.0067251865469 -0.006674226196 -0.006617045773 -0.0065531484239 -0.0064819743089 -0.0064029027654 -0.0063152548211 -0.0062183053714 
-0.0061113008914 -0.0059934895988 -0.0058641634132 -0.0057227180983 -0.0055687300891 -0.0054020550268 -0.0052229474596 -0.0050322012876 -0.0048318133513 
-0.0046244576467 -0.0044134952505 -0.0042031255742 -0.003998269905 -0.0038043687386 -0.0036270725989 -0.0034718254367 -0.0033433618223 -0.0032451655288 
-0.003178964705 -0.0031443610732 -0.0031386954128 -0.0031572324725 -0.0031936829804 -0.0032409932073 -0.0032922259855 -0.003341307704 -0.0033834841273 
-0.0034155236463 -0.0034356355249 -0.0034435017877 -0.0069665054925 -0.0069841245017 -0.0069916290392 -0.006991468149 -0.006985296869 -0.0069741076362 
-0.0069584263118 -0.0069384706682 -0.0069142643727 -0.0068857025406 -0.0068525948235 -0.0068146821174 -0.0067716452902 -0.0067231067779 -0.0066686237658 
-0.0066076848195 -0.006539703357 -0.0064640135005 -0.0063798723766 -0.0062864640984 -0.006182916436 -0.00606832641 -0.0059418023239 -0.0058025237574 
-0.0056498228094 -0.0054832903694 -0.0053029076128 -0.005109205393 -0.0049038452695 -0.0046898719246 -0.0044707817921 -0.0042510434378 -0.0040360087761 
-0.00383171044 -0.0036445305378 -0.0034807348891 -0.0033458888977 -0.0032442024536 -0.0031778907362 -0.003146671923 -0.0031475468701 -0.0031749825772 
-0.0032215536448 -0.0032789603943 -0.0033391855207 -0.0033954408543 -0.0034426133544 -0.0034773784713 -0.0034983140276 -0.0035050952355 -0.0070145722992 
-0.0070330339346 -0.0070410983932 -0.00704143282 -0.00703583373 -0.007025372425 -0.0070106184175 -0.0069918191863 -0.0069690190127 -0.0069421321965 
-0.0069109824066 -0.0068753224438 -0.0068348426457 -0.0067891665473 -0.0067378475541 -0.0066803580144 -0.0066160815356 -0.0065443056859 -0.0064642167555 
-0.0063749030164 -0.0062753643181 -0.0061645354181 -0.0060413261451 -0.0059046791376 -0.0057536550771 -0.005587540265 -0.0054059866322 -0.0052091741626 
-0.0049981497403 -0.0047765768759 -0.0045480441762 -0.0043173010819 -0.0040901704087 -0.0038733522943 -0.0036740801459 -0.0034996097685 -0.0033565462907 
-0.0032500518562 -0.0031830278619 -0.0031554257733 -0.0031638831325 -0.0032018809801 -0.0032605287102 -0.0033298981381 -0.0034005827199 -0.003464952171 
-0.0035172099856 -0.0035543248695 -0.0035759276737 -0.0035809117981 -0.0070775685257 -0.0070965854864 -0.0071051295461 -0.0071060221022 -0.0071011536408 
-0.0070916421899 -0.0070780817684 -0.0070607372565 -0.0070396679328 -0.0070148041977 -0.0069859838667 -0.0069529741467 -0.0069154749325 -0.0068731153388 
-0.0068254453739 -0.0067719247395 -0.006711910124 -0.0066446440758 -0.0065692461566 -0.0064847100384 -0.0063899093162 -0.0062836166221 -0.0061645378782 
-0.0060313713706 -0.0058828861059 -0.0057180353589 -0.0055360929308 -0.005336826768 -0.0051202684142 -0.0048907633663 -0.0046520486895 -0.0044091479821 
-0.0041683517066 -0.0039370552208 -0.0037234241427 -0.0035358569239 -0.0033822296785 -0.0032689502147 -0.0031999144771 -0.0031755482292 -0.0031922012119 
-0.0032422003933 -0.0033147854648 -0.0033978821356 -0.0034802721957 -0.0035534173219 -0.003609775445 -0.0036495014574 -0.0036712228914 -0.0036737847971 
-0.0071558608737 -0.0071752177331 -0.0071841916652 -0.0071857092583 -0.0071817187128 -0.0071733632816 -0.0071612493594 -0.0071456493171 -0.0071266350279 
-0.0071041483301 -0.0070780433907 -0.0070481027265 -0.007014038797 -0.006975490495 -0.0069320102396 -0.0068830517073 -0.0068279533649 -0.006765922457 
-0.0066960229371 -0.0066171665824 -0.0065281134923 -0.0064274850358 -0.0063137947327 -0.0061854981268 -0.0060410721582 -0.0058791174483 -0.005698493596 
-0.0054984875573 -0.0052780899749 -0.0050412256246 -0.0047925152413 -0.0045371544431 -0.0042818032682 -0.0040344788082 -0.0038042629626 -0.003600779523 
-0.0034333909891 -0.0033101075155 -0.0032362833729 -0.003213294651 -0.0032375359095 -0.003300190679 -0.0033882176141 -0.003486663132 -0.0035817667473 
-0.0036632407399 -0.0037243880446 -0.0037658702765 -0.0037869445588 -0.0037867046232 -0.0072495624871 -0.0072690968213 -0.0072784784494 -0.0072806963528 
-0.0072777299284 -0.0072707336801 -0.0072603163204 -0.0072467552536 -0.0072301291478 -0.0072103935957 -0.007187419639 -0.0071610074411 -0.0071308886453 
-0.0070967174244 -0.0070580596793 -0.0070143747177 -0.0069649972376 -0.0069091182305 -0.006845766684 -0.0067737962933 -0.0066918796312 -0.0065985144644 
-0.0064920467018 -0.0063707154303 -0.0062327240961 -0.0060763348074 -0.0058999820447 -0.0057023540663 -0.00548231359 -0.0052400767424 -0.0049831282267 
-0.0047165282288 -0.0044470626377 -0.0041831239086 -0.0039345052557 -0.0037119681945 -0.0035264676471 -0.0033879719311 -0.0033039092519 -0.0032774139265 
-0.0033057443639 -0.0033794721457 -0.0034831819142 -0.0035982139189 -0.0037070487617 -0.0037969390311 -0.0038633165357 -0.0039058241917 -0.0039255944108 
-0.0039225682143 -0.0073585733747 -0.0073781630753 -0.0073879509437 -0.0073909545206 -0.007389164985 -0.0073837364579 -0.007375275372 -0.0073640609566 
-0.0073501794459 -0.007333601727 -0.0073142186441 -0.0072918543206 -0.0072662664127 -0.0072371372036 -0.007204058874 -0.0071665152662 -0.0071238603583 
-0.0070752956959 -0.0070198482467 -0.0069563510815 -0.0068834315216 -0.0067995092128 -0.0067028124141 -0.0065914167848 -0.0064633089811 -0.0063164839666 
-0.0061490572437 -0.0059594046471 -0.0057462860115 -0.0055035940985 -0.0052428543322 -0.0049688437245 -0.0046881287753 -0.0044089844931 -0.0041414002689 
-0.0038968734783 -0.0036877945637 -0.0035262975533 -0.0034225425855 -0.0033825438967 -0.0034058857907 -0.0034839932172 -0.0035999726748 -0.0037311670172 
-0.0038547447046 -0.003954191955 -0.0040269087839 -0.0040703774457 -0.0040888769088 -0.0040838163034 -0.0074826140827 -0.0075021641902 -0.0075123719115 
-0.0075162579806 -0.0075158081564 -0.0075121681564 -0.0075059397054 -0.0074974027028 -0.0074866543365 -0.0074736841037 -0.0074584085407 -0.0074406845524 
-0.0074203077409 -0.0073970034166 -0.0073704105458 -0.0073400625095 -0.0073053640587 -0.00726556581 -0.0072197386584 -0.0071667497105 -0.0071052432519 
-0.0070336337828 -0.0069501142157 -0.0068526878567 -0.0067392303585 -0.0066075802927 -0.006455666788 -0.006281656991 -0.0060841968099 -0.0058537724005 
-0.0055975559639 -0.0053239548358 -0.005038821993 -0.00474944282 -0.004465024802 -0.0041969229529 -0.0039583680304 -0.0037635264293 -0.0036257867657 
-0.0035552940622 -0.0035559775738 -0.0036226873458 -0.0037395839438 -0.0038814863342 -0.0040197888989 -0.004132094877 -0.004210065792 -0.0042580704352 
-0.0042772841659 -0.004272135229 -0.0076212477219 -0.0076406807813 -0.0076513338619 -0.0076562088726 -0.007657273265 -0.007655658434 -0.0076519590942 
-0.0076464586726 -0.0076392691143 -0.0076304045977 -0.0076198165375 -0.0076074064076 -0.0075930237704 -0.0075764572064 -0.0075574188818 -0.0075355249775 
-0.0075102722663 -0.0074810121012 -0.0074469217597 -0.0074069778901 -0.0073599342835 -0.0073043094042 -0.0072383911841 -0.0071602653076 -0.0070678701286 
-0.0069590797816 -0.0068318002254 -0.0066840616551 -0.0065140458376 -0.0063197835905 -0.0060811764187 -0.0058212026827 -0.0055441895813 -0.0052549496793 
-0.0049603062115 -0.0046700021252 -0.0043969685718 -0.0041567938064 -0.0039662281487 -0.0038406412122 -0.0037905350744 -0.0038175661077 -0.0039111345558 
-0.0040474748854 -0.0041939423766 -0.0043199781045 -0.0044092126419 -0.0044655979858 -0.0044902050107 -0.0044885451483 -0.0077738962799 -0.0077931456895 
-0.0078042770858 -0.0078102556276 -0.007813019633 -0.0078136814253 -0.0078128286305 -0.0078107519914 -0.0078075838298 -0.0078033715047 -0.0077981137438 
-0.0077917715494 -0.0077842689436 -0.0077754835897 -0.0077652339126 -0.0077532608769 -0.0077392067863 -0.0077225894371 -0.0077027763557 -0.007678958382 
-0.0076501289193 -0.0076150740587 -0.0075723800011 -0.0075204608954 -0.0074576078419 -0.007382038135 -0.0072919287828 -0.0071854142394 -0.0070605620763 
-0.0069155559197 -0.0067348469405 -0.0065082328624 -0.0062590394934 -0.0059872091456 -0.0056948904035 -0.0053881960929 -0.0050781400842 -0.0047806642005 
-0.0045155531921 -0.0043040664947 -0.0041652380286 -0.0041110604286 -0.0041413238732 -0.0042398579326 -0.0043752997329 -0.0045101613895 -0.004617180283 
-0.0046879997169 -0.004726972736 -0.0047342295682 -0.0079398515574 -0.0079588573738 -0.0079705037904 -0.0079777052222 -0.0079823616277 -0.0079855627718 
-0.0079878906933 -0.0079896478233 -0.0079909941605 -0.0079920221272 -0.0079927914772 -0.0079933425933 -0.0079936978231 -0.007993855914 -0.0079937816862 
-0.0079933930228 -0.0079925427462 -0.0079910007368 -0.0079884332558 -0.0079843861541 -0.0079782753949 -0.0079693916972 -0.0079569209878 -0.0079399810271 
-0.0079176434294 -0.0078889130153 -0.0078526052823 -0.0078070969903 -0.0077500060108 -0.007677955958 -0.0075866549582 -0.0074356584497 -0.0072418158811 
-0.0070120017175 -0.006740951672 -0.0064288681847 -0.0060830240498 -0.0057183756223 -0.0053569881839 -0.0050260654223 -0.004754410178 -0.004567263983 
-0.0044798517921 -0.0044908254151 -0.0045783952366 -0.0047039860591 -0.0048277401384 -0.0049259274949 -0.004988563066 -0.005012219204 -0.0081182841527 
-0.0081369890373 -0.0081491878604 -0.0081577316887 -0.0081644750737 -0.0081704827371 -0.0081763334137 -0.0081823466372 -0.0081887197147 -0.0081956028174 
-0.0082031339547 -0.0082114552132 -0.0082207162118 -0.0082310735002 -0.0082426866771 -0.0082557109752 -0.0082702912735 -0.0082865539095 -0.0083046033606 
-0.0083245260252 -0.0083464090076 -0.0083703767228 -0.008396644094 -0.0084255547694 -0.0084575546574 -0.0084930088565 -0.0085317812225 -0.0085725543581 
-0.008612007645 -0.0086441293938 -0.0086599286004 -0.0086475587044 -0.0085437598218 -0.008386911868 -0.0081616865324 -0.0078602221061 -0.0074844173022 
-0.0070469340452 -0.0065710792987 -0.0060893781128 -0.0056405869883 -0.0052648290938 -0.0049966391114 -0.0048562761564 -0.0048411117365 -0.0049215845632 
-0.0050494835556 -0.0051802966723 -0.0052806555929 -0.0053296432619 -0.0083082498648 -0.0083265973966 -0.0083393827727 -0.0083493831904 -0.0083584017981 
-0.0083674774314 -0.0083771883862 -0.008387877583 -0.0083997905106 -0.0084131491484 -0.0084281897184 -0.0084451805145 -0.0084644310253 -0.0084862979482 
-0.0085111890506 -0.0085395696448 -0.0085719702548 -0.0086090010822 -0.0086513765299 -0.0086999590717 -0.0087558277711 -0.0088203733449 -0.0088953943901 
-0.0089831312435 -0.0090861211389 -0.0092067230567 -0.0093462044715 -0.0095034209989 -0.0096733856049 -0.0098461778668 -0.010006742277 -0.010135889826 
-0.010195319252 -0.010146843525 -0.0099960484198 -0.0097252626716 -0.0093301133494 -0.0088200783245 -0.0082186114494 -0.0075623192333 -0.0068988876223 
-0.006283222426 -0.0057710308708 -0.005409187112 -0.0052232064401 -0.0052047948503 -0.0053078377352 -0.0054657789527 -0.0056133960733 -0.005698994798 
-0.0085086968108 -0.0085266307748 -0.0085400296285 -0.0085515885083 -0.0085630549327 -0.008575441559 -0.0085893293977 -0.0086050926605 -0.008623035998 
-0.0086434690319 -0.0086667465832 -0.0086932902063 -0.0087236045593 -0.0087582913177 -0.0087980669907 -0.0088437858243 -0.0088964715827 -0.0089573644127 
-0.0090279917336 -0.0091102730506 -0.0092066670366 -0.0093203466896 -0.0094553456294 -0.0096165481391 -0.0098093177008 -0.010038551608 -0.010307048604 
-0.010613395293 -0.010949848163 -0.011301025248 -0.011644070843 -0.011950716687 -0.012191560927 -0.012292427735 -0.012246689528 -0.012028847039 
-0.011629032035 -0.011053484795 -0.010324921279 -0.0094823450336 -0.0085801707331 -0.007686056514 -0.0068761866597 -0.0062262587623 -0.0057966711787 
-0.0056124577104 -0.005644522132 -0.0058111517265 -0.0060114773305 -0.0061419841639 -0.0087184741395 -0.0087359375363 -0.0087499663473 -0.0087631663142 
-0.0087772259436 -0.0087931327142 -0.0088114746931 -0.0088326651921 -0.0088570793707 -0.0088851306931 -0.0089173133842 -0.0089542302816 -0.0089966164367 
-0.0090453658541 -0.0091015661418 -0.0091665444352 -0.0092419326072 -0.0093297603003 -0.0094325904214 -0.0095537108635 -0.0096973841057 -0.0098691197338 
-0.010075856154 -0.010325833583 -0.010627855979 -0.010989665302 -0.011415417773 -0.011902633637 -0.01243949819 -0.013003479281 -0.013562037777 
-0.014075581395 -0.014502063923 -0.014788917941 -0.014875125622 -0.014731115324 -0.014343324951 -0.013715458905 -0.012868971465 -0.011843376502 
-0.010696662177 -0.0095053567262 -0.008362662236 -0.0073718619605 -0.0066314784715 -0.0062096433791 -0.006110584583 -0.0062523359413 -0.0064962496093 
-0.0066815904279 -0.0089363425064 -0.0089532790827 -0.0089679401597 -0.0089828359362 -0.0089995948249 -0.0090191807183 -0.0090421935344 -0.0090690935739 
-0.0091003380906 -0.0091364595639 -0.0091781120081 -0.0092261055687 -0.0092814402551 -0.0093453481059 -0.009419348336 -0.0095053239159 -0.0096056285737 
-0.0097232408998 -0.0098619826628 -0.010026818429 -0.010224227374 -0.010462572921 -0.010752282435 -0.01110550839 -0.011534862121 -0.012050942185 
-0.012658765495 -0.013353810563 -0.014118840092 -0.014922692501 -0.015721778829 -0.016464221544 -0.01709594582 -0.017567205544 -0.017802741666 
-0.017747896279 -0.017387823503 -0.016724953873 -0.015779421675 -0.014589480146 -0.01321300085 -0.011730032463 -0.010244757073 -0.0088831595287 
-0.007780836027 -0.0070548715871 -0.0067577245352 -0.0068278404414 -0.0070946591177 -0.0073427226496 -0.0091609893222 -0.0091773441237 -0.0091926220829 
-0.0092092330309 -0.0092287449547 -0.0092521009539 -0.0092799186421 -0.0093127129529 -0.0093510336469 -0.0093955458357 -0.009447081274 -0.0095066804988 
-0.0095756390298 -0.009655566706 -0.0097484682452 -0.0098568552171 -0.0099839050123 -0.010133685889 -0.010311473729 -0.01052417352 -0.010780818808 
-0.011093022422 -0.011475100526 -0.0119434165 -0.012514456638 -0.013201382683 -0.014009386348 -0.01493089291 -0.015942073133 -0.01700201816 
-0.018055155638 -0.019036861644 -0.019881197669 -0.020530469387 -0.020917315502 -0.020957840396 -0.020637077586 -0.019957626983 -0.018938833894 
-0.017616459884 -0.016044658233 -0.014300877794 -0.012492269571 -0.010759301901 -0.0092690831049 -0.0081885795088 -0.0076297773411 -0.0075739438999 
-0.0078355548489 -0.0081493072411 -0.009391046114 -0.009406767893 -0.0094226270731 -0.0094409287222 -0.0094631820274 -0.0094903140486 -0.0095229658619 
-0.009561714262 -0.0096072104517 -0.0096602633457 -0.0097218964575 -0.0097933985701 -0.0098763837565 -0.0099728697956 -0.010085386949 -0.010217130179 
-0.010372174496 -0.010555779683 -0.010774811313 -0.011038288074 -0.011357999376 -0.011749009749 -0.012229665112 -0.012820538818 -0.013541760058 
-0.014408554648 -0.015425561741 -0.016581311169 -0.017844591504 -0.019164077843 -0.02047183994 -0.02169008219 -0.022740113428 -0.023551667049 
-0.024082256301 -0.02421508728 -0.023939075214 -0.023259296278 -0.022195764379 -0.020781584981 -0.019064455181 -0.017113284303 -0.015029191778 
-0.012956391136 -0.011083816192 -0.0096239699404 -0.008754582189 -0.0085203969794 -0.0087472937781 -0.0091251170458 -0.009625111145 -0.0096401546391 
-0.0096565361793 -0.0096764531929 -0.0097013591349 -0.009732170953 -0.0097695599115 -0.009814171459 -0.0098667652148 -0.0099283016453 -0.010000004498 
-0.010083421664 -0.010180498344 -0.010293676382 -0.010426032019 -0.01058146987 -0.010764996773 -0.010983105903 -0.011244300969 -0.011559759298 
-0.011944047353 -0.01241564243 -0.012996773983 -0.013711924631 -0.014584402814 -0.015630909178 -0.01685492333 -0.018240583649 -0.01974898773 