# vtk DataFile Version 4.1
vtk output
ASCII
DATASET STRUCTURED_GRID
DIMENSIONS 51 51 1
POINTS 2601 float
0 0 0 0.02 0 0 0.04 0 0 
0.06 0 0 0.08 0 0 0.1 0 0 
0.12 0 0 0.14 0 0 0.16 0 0 
0.18 0 0 0.2 0 0 0.22 0 0 
0.24 0 0 0.26 0 0 0.28 0 0 
0.3 0 0 0.32 0 0 0.34 0 0 
0.36 0 0 0.38 0 0 0.4 0 0 
0.42 0 0 0.44 0 0 0.46 0 0 
0.48 0 0 0.5 0 0 0.52 0 0 
0.54 0 0 0.56 0 0 0.58 0 0 
0.6 0 0 0.62 0 0 0.64 0 0 
0.66 0 0 0.68 0 0 0.7 0 0 
0.72 0 0 0.74 0 0 0.76 0 0 
0.78 0 0 0.8 0 0 0.82 0 0 
0.84 0 0 0.86 0 0 0.88 0 0 
0.9 0 0 0.92 0 0 0.94 0 0 
0.96 0 0 0.98 0 0 1 0 0 
0 0.02 0 0.02 0.02 0 0.04 0.02 0 
0.06 0.02 0 0.08 0.02 0 0.1 0.02 0 
0.12 0.02 0 0.14 0.02 0 0.16 0.02 0 
0.18 0.02 0 0.2 0.02 0 0.22 0.02 0 
0.24 0.02 0 0.26 0.02 0 0.28 0.02 0 
0.3 0.02 0 0.32 0.02 0 0.34 0.02 0 
0.36 0.02 0 0.38 0.02 0 0.4 0.02 0 
0.42 0.02 0 0.44 0.02 0 0.46 0.02 0 
0.48 0.02 0 0.5 0.02 0 0.52 0.02 0 
0.54 0.02 0 0.56 0.02 0 0.58 0.02 0 
0.6 0.02 0 0.62 0.02 0 0.64 0.02 0 
0.66 0.02 0 0.68 0.02 0 0.7 0.02 0 
0.72 0.02 0 0.74 0.02 0 0.76 0.02 0 
0.78 0.02 0 0.8 0.02 0 0.82 0.02 0 
0.84 0.02 0 0.86 0.02 0 0.88 0.02 0 
0.9 0.02 0 0.92 0.02 0 0.94 0.02 0 
0.96 0.02 0 0.98 0.02 0 1 0.02 0 
0 0.04 0 0.02 0.04 0 0.04 0.04 0 
0.06 0.04 0 0.08 0.04 0 0.1 0.04 0 
0.12 0.04 0 0.14 0.04 0 0.16 0.04 0 
0.18 0.04 0 0.2 0.04 0 0.22 0.04 0 
0.24 0.04 0 0.26 0.04 0 0.28 0.04 0 
0.3 0.04 0 0.32 0.04 0 0.34 0.04 0 
0.36 0.04 0 0.38 0.04 0 0.4 0.04 0 
0.42 0.04 0 0.44 0.04 0 0.46 0.04 0 
0.48 0.04 0 0.5 0.04 0 0.52 0.04 0 
0.54 0.04 0 0.56 0.04 0 0.58 0.04 0 
0.6 0.04 0 0.62 0.04 0 0.64 0.04 0 
0.66 0.04 0 0.68 0.04 0 0.7 0.04 0 
0.72 0.04 0 0.74 0.04 0 0.76 0.04 0 
0.78 0.04 0 0.8 0.04 0 0.82 0.04 0 
0.84 0.04 0 0.86 0.04 0 0.88 0.04 0 
0.9 0.04 0 0.92 0.04 0 0.94 0.04 0 
0.96 0.04 0 0.98 0.04 0 1 0.04 0 
0 0.06 0 0.02 0.06 0 0.04 0.06 0 
0.06 0.06 0 0.08 0.06 0 0.1 0.06 0 
0.12 0.06 0 0.14 0.06 0 0.16 0.06 0 
0.18 0.06 0 0.2 0.06 0 0.22 0.06 0 
0.24 0.06 0 0.26 0.06 0 0.28 0.06 0 
0.3 0.06 0 0.32 0.06 0 0.34 0.06 0 
0.36 0.06 0 0.38 0.06 0 0.4 0.06 0 
0.42 0.06 0 0.44 0.06 0 0.46 0.06 0 
0.48 0.06 0 0.5 0.06 0 0.52 0.06 0 
0.54 0.06 0 0.56 0.06 0 0.58 0.06 0 
0.6 0.06 0 0.62 0.06 0 0.64 0.06 0 
0.66 0.06 0 0.68 0.06 0 0.7 0.06 0 
0.72 0.06 0 0.74 0.06 0 0.76 0.06 0 
0.78 0.06 0 0.8 0.06 0 0.82 0.06 0 
0.84 0.06 0 0.86 0.06 0 0.88 0.06 0 
0.9 0.06 0 0.92 0.06 0 0.94 0.06 0 
0.96 0.06 0 0.98 0.06 0 1 0.06 0 
0 0.08 0 0.02 0.08 0 0.04 0.08 0 
0.06 0.08 0 0.08 0.08 0 0.1 0.08 0 
0.12 0.08 0 0.14 0.08 0 0.16 0.08 0 
0.18 0.08 0 0.2 0.08 0 0.22 0.08 0 
0.24 0.08 0 0.26 0.08 0 0.28 0.08 0 
0.3 0.08 0 0.32 0.08 0 0.34 0.08 0 
0.36 0.08 0 0.38 0.08 0 0.4 0.08 0 
0.42 0.08 0 0.44 0.08 0 0.46 0.08 0 
0.48 0.08 0 0.5 0.08 0 0.52 0.08 0 
0.54 0.08 0 0.56 0.08 0 0.58 0.08 0 
0.6 0.08 0 0.62 0.08 0 0.64 0.08 0 
0.66 0.08 0 0.68 0.08 0 0.7 0.08 0 
0.72 0.08 0 0.74 0.08 0 0.76 0.08 0 
0.78 0.08 0 0.8 0.08 0 0.82 0.08 0 
0.84 0.08 0 0.86 0.08 0 0.88 0.08 0 
0.9 0.08 0 0.92 0.08 0 0.94 0.08 0 
0.96 0.08 0 0.98 0.08 0 1 0.08 0 
0 0.1 0 0.02 0.1 0 0.04 0.1 0 
0.06 0.1 0 0.08 0.1 0 0.1 0.1 0 
0.12 0.1 0 0.14 0.1 0 0.16 0.1 0 
0.18 0.1 0 0.2 0.1 0 0.22 0.1 0 
0.24 0.1 0 0.26 0.1 0 0.28 0.1 0 
0.3 0.1 0 0.32 0.1 0 0.34 0.1 0 
0.36 0.1 0 0.38 0.1 0 0.4 0.1 0 
0.42 0.1 0 0.44 0.1 0 0.46 0.1 0 
0.48 0.1 0 0.5 0.1 0 0.52 0.1 0 
0.54 0.1 0 0.56 0.1 0 0.58 0.1 0 
0.6 0.1 0 0.62 0.1 0 0.64 0.1 0 
0.66 0.1 0 0.68 0.1 0 0.7 0.1 0 
0.72 0.1 0 0.74 0.1 0 0.76 0.1 0 
0.78 0.1 0 0.8 0.1 0 0.82 0.1 0 
0.84 0.1 0 0.86 0.1 0 0.88 0.1 0 
0.9 0.1 0 0.92 0.1 0 0.94 0.1 0 
0.96 0.1 0 0.98 0.1 0 1 0.1 0 
0 0.12 0 0.02 0.12 0 0.04 0.12 0 
0.06 0.12 0 0.08 0.12 0 0.1 0.12 0 
0.12 0.12 0 0.14 0.12 0 0.16 0.12 0 
0.18 0.12 0 0.2 0.12 0 0.22 0.12 0 
0.24 0.12 0 0.26 0.12 0 0.28 0.12 0 
0.3 0.12 0 0.32 0.12 0 0.34 0.12 0 
0.36 0.12 0 0.38 0.12 0 0.4 0.12 0 
0.42 0.12 0 0.44 0.12 0 0.46 0.12 0 
0.48 0.12 0 0.5 0.12 0 0.52 0.12 0 
0.54 0.12 0 0.56 0.12 0 0.58 0.12 0 
0.6 0.12 0 0.62 0.12 0 0.64 0.12 0 
0.66 0.12 0 0.68 0.12 0 0.7 0.12 0 
0.72 0.12 0 0.74 0.12 0 0.76 0.12 0 
0.78 0.12 0 0.8 0.12 0 0.82 0.12 0 
0.84 0.12 0 0.86 0.12 0 0.88 0.12 0 
0.9 0.12 0 0.92 0.12 0 0.94 0.12 0 
0.96 0.12 0 0.98 0.12 0 1 0.12 0 
0 0.14 0 0.02 0.14 0 0.04 0.14 0 
0.06 0.14 0 0.08 0.14 0 0.1 0.14 0 
0.12 0.14 0 0.14 0.14 0 0.16 0.14 0 
0.18 0.14 0 0.2 0.14 0 0.22 0.14 0 
0.24 0.14 0 0.26 0.14 0 0.28 0.14 0 
0.3 0.14 0 0.32 0.14 0 0.34 0.14 0 
0.36 0.14 0 0.38 0.14 0 0.4 0.14 0 
0.42 0.14 0 0.44 0.14 0 0.46 0.14 0 
0.48 0.14 0 0.5 0.14 0 0.52 0.14 0 
0.54 0.14 0 0.56 0.14 0 0.58 0.14 0 
0.6 0.14 0 0.62 0.14 0 0.64 0.14 0 
0.66 0.14 0 0.68 0.14 0 0.7 0.14 0 
0.72 0.14 0 0.74 0.14 0 0.76 0.14 0 
0.78 0.14 0 0.8 0.14 0 0.82 0.14 0 
0.84 0.14 0 0.86 0.14 0 0.88 0.14 0 
0.9 0.14 0 0.92 0.14 0 0.94 0.14 0 
0.96 0.14 0 0.98 0.14 0 1 0.14 0 
0 0.16 0 0.02 0.16 0 0.04 0.16 0 
0.06 0.16 0 0.08 0.16 0 0.1 0.16 0 
0.12 0.16 0 0.14 0.16 0 0.16 0.16 0 
0.18 0.16 0 0.2 0.16 0 0.22 0.16 0 
0.24 0.16 0 0.26 0.16 0 0.28 0.16 0 
0.3 0.16 0 0.32 0.16 0 0.34 0.16 0 
0.36 0.16 0 0.38 0.16 0 0.4 0.16 0 
0.42 0.16 0 0.44 0.16 0 0.46 0.16 0 
0.48 0.16 0 0.5 0.16 0 0.52 0.16 0 
0.54 0.16 0 0.56 0.16 0 0.58 0.16 0 
0.6 0.16 0 0.62 0.16 0 0.64 0.16 0 
0.66 0.16 0 0.68 0.16 0 0.7 0.16 0 
0.72 0.16 0 0.74 0.16 0 0.76 0.16 0 
0.78 0.16 0 0.8 0.16 0 0.82 0.16 0 
0.84 0.16 0 0.86 0.16 0 0.88 0.16 0 
0.9 0.16 0 0.92 0.16 0 0.94 0.16 0 
0.96 0.16 0 0.98 0.16 0 1 0.16 0 
0 0.18 0 0.02 0.18 0 0.04 0.18 0 
0.06 0.18 0 0.08 0.18 0 0.1 0.18 0 
0.12 0.18 0 0.14 0.18 0 0.16 0.18 0 
0.18 0.18 0 0.2 0.18 0 0.22 0.18 0 
0.24 0.18 0 0.26 0.18 0 0.28 0.18 0 
0.3 0.18 0 0.32 0.18 0 0.34 0.18 0 
0.36 0.18 0 0.38 0.18 0 0.4 0.18 0 
0.42 0.18 0 0.44 0.18 0 0.46 0.18 0 
0.48 0.18 0 0.5 0.18 0 0.52 0.18 0 
0.54 0.18 0 0.56 0.18 0 0.58 0.18 0 
0.6 0.18 0 0.62 0.18 0 0.64 0.18 0 
0.66 0.18 0 0.68 0.18 0 0.7 0.18 0 
0.72 0.18 0 0.74 0.18 0 0.76 0.18 0 
0.78 0.18 0 0.8 0.18 0 0.82 0.18 0 
0.84 0.18 0 0.86 0.18 0 0.88 0.18 0 
0.9 0.18 0 0.92 0.18 0 0.94 0.18 0 
0.96 0.18 0 0.98 0.18 0 1 0.18 0 
0 0.2 0 0.02 0.2 0 0.04 0.2 0 
0.06 0.2 0 0.08 0.2 0 0.1 0.2 0 
0.12 0.2 0 0.14 0.2 0 0.16 0.2 0 
0.18 0.2 0 0.2 0.2 0 0.22 0.2 0 
0.24 0.2 0 0.26 0.2 0 0.28 0.2 0 
0.3 0.2 0 0.32 0.2 0 0.34 0.2 0 
0.36 0.2 0 0.38 0.2 0 0.4 0.2 0 
0.42 0.2 0 0.44 0.2 0 0.46 0.2 0 
0.48 0.2 0 0.5 0.2 0 0.52 0.2 0 
0.54 0.2 0 0.56 0.2 0 0.58 0.2 0 
0.6 0.2 0 0.62 0.2 0 0.64 0.2 0 
0.66 0.2 0 0.68 0.2 0 0.7 0.2 0 
0.72 0.2 0 0.74 0.2 0 0.76 0.2 0 
0.78 0.2 0 0.8 0.2 0 0.82 0.2 0 
0.84 0.2 0 0.86 0.2 0 0.88 0.2 0 
0.9 0.2 0 0.92 0.2 0 0.94 0.2 0 
0.96 0.2 0 0.98 0.2 0 1 0.2 0 
0 0.22 0 0.02 0.22 0 0.04 0.22 0 
0.06 0.22 0 0.08 0.22 0 0.1 0.22 0 
0.12 0.22 0 0.14 0.22 0 0.16 0.22 0 
0.18 0.22 0 0.2 0.22 0 0.22 0.22 0 
0.24 0.22 0 0.26 0.22 0 0.28 0.22 0 
0.3 0.22 0 0.32 0.22 0 0.34 0.22 0 
0.36 0.22 0 0.38 0.22 0 0.4 0.22 0 
0.42 0.22 0 0.44 0.22 0 0.46 0.22 0 
0.48 0.22 0 0.5 0.22 0 0.52 0.22 0 
0.54 0.22 0 0.56 0.22 0 0.58 0.22 0 
0.6 0.22 0 0.62 0.22 0 0.64 0.22 0 
0.66 0.22 0 0.68 0.22 0 0.7 0.22 0 
0.72 0.22 0 0.74 0.22 0 0.76 0.22 0 
0.78 0.22 0 0.8 0.22 0 0.82 0.22 0 
0.84 0.22 0 0.86 0.22 0 0.88 0.22 0 
0.9 0.22 0 0.92 0.22 0 0.94 0.22 0 
0.96 0.22 0 0.98 0.22 0 1 0.22 0 
0 0.24 0 0.02 0.24 0 0.04 0.24 0 
0.06 0.24 0 0.08 0.24 0 0.1 0.24 0 
0.12 0.24 0 0.14 0.24 0 0.16 0.24 0 
0.18 0.24 0 0.2 0.24 0 0.22 0.24 0 
0.24 0.24 0 0.26 0.24 0 0.28 0.24 0 
0.3 0.24 0 0.32 0.24 0 0.34 0.24 0 
0.36 0.24 0 0.38 0.24 0 0.4 0.24 0 
0.42 0.24 0 0.44 0.24 0 0.46 0.24 0 
0.48 0.24 0 0.5 0.24 0 0.52 0.24 0 
0.54 0.24 0 0.56 0.24 0 0.58 0.24 0 
0.6 0.24 0 0.62 0.24 0 0.64 0.24 0 
0.66 0.24 0 0.68 0.24 0 0.7 0.24 0 
0.72 0.24 0 0.74 0.24 0 0.76 0.24 0 
0.78 0.24 0 0.8 0.24 0 0.82 0.24 0 
0.84 0.24 0 0.86 0.24 0 0.88 0.24 0 
0.9 0.24 0 0.92 0.24 0 0.94 0.24 0 
0.96 0.24 0 0.98 0.24 0 1 0.24 0 
0 0.26 0 0.02 0.26 0 0.04 0.26 0 
0.06 0.26 0 0.08 0.26 0 0.1 0.26 0 
0.12 0.26 0 0.14 0.26 0 0.16 0.26 0 
0.18 0.26 0 0.2 0.26 0 0.22 0.26 0 
0.24 0.26 0 0.26 0.26 0 0.28 0.26 0 
0.3 0.26 0 0.32 0.26 0 0.34 0.26 0 
0.36 0.26 0 0.38 0.26 0 0.4 0.26 0 
0.42 0.26 0 0.44 0.26 0 0.46 0.26 0 
0.48 0.26 0 0.5 0.26 0 0.52 0.26 0 
0.54 0.26 0 0.56 0.26 0 0.58 0.26 0 
0.6 0.26 0 0.62 0.26 0 0.64 0.26 0 
0.66 0.26 0 0.68 0.26 0 0.7 0.26 0 
0.72 0.26 0 0.74 0.26 0 0.76 0.26 0 
0.78 0.26 0 0.8 0.26 0 0.82 0.26 0 
0.84 0.26 0 0.86 0.26 0 0.88 0.26 0 
0.9 0.26 0 0.92 0.26 0 0.94 0.26 0 
0.96 0.26 0 0.98 0.26 0 1 0.26 0 
0 0.28 0 0.02 0.28 0 0.04 0.28 0 
0.06 0.28 0 0.08 0.28 0 0.1 0.28 0 
0.12 0.28 0 0.14 0.28 0 0.16 0.28 0 
0.18 0.28 0 0.2 0.28 0 0.22 0.28 0 
0.24 0.28 0 0.26 0.28 0 0.28 0.28 0 
0.3 0.28 0 0.32 0.28 0 0.34 0.28 0 
0.36 0.28 0 0.38 0.28 0 0.4 0.28 0 
0.42 0.28 0 0.44 0.28 0 0.46 0.28 0 
0.48 0.28 0 0.5 0.28 0 0.52 0.28 0 
0.54 0.28 0 0.56 0.28 0 0.58 0.28 0 
0.6 0.28 0 0.62 0.28 0 0.64 0.28 0 
0.66 0.28 0 0.68 0.28 0 0.7 0.28 0 
0.72 0.28 0 0.74 0.28 0 0.76 0.28 0 
0.78 0.28 0 0.8 0.28 0 0.82 0.28 0 
0.84 0.28 0 0.86 0.28 0 0.88 0.28 0 
0.9 0.28 0 0.92 0.28 0 0.94 0.28 0 
0.96 0.28 0 0.98 0.28 0 1 0.28 0 
0 0.3 0 0.02 0.3 0 0.04 0.3 0 
0.06 0.3 0 0.08 0.3 0 0.1 0.3 0 
0.12 0.3 0 0.14 0.3 0 0.16 0.3 0 
0.18 0.3 0 0.2 0.3 0 0.22 0.3 0 
0.24 0.3 0 0.26 0.3 0 0.28 0.3 0 
0.3 0.3 0 0.32 0.3 0 0.34 0.3 0 
0.36 0.3 0 0.38 0.3 0 0.4 0.3 0 
0.42 0.3 0 0.44 0.3 0 0.46 0.3 0 
0.48 0.3 0 0.5 0.3 0 0.52 0.3 0 
0.54 0.3 0 0.56 0.3 0 0.58 0.3 0 
0.6 0.3 0 0.62 0.3 0 0.64 0.3 0 
0.66 0.3 0 0.68 0.3 0 0.7 0.3 0 
0.72 0.3 0 0.74 0.3 0 0.76 0.3 0 
0.78 0.3 0 0.8 0.3 0 0.82 0.3 0 
0.84 0.3 0 0.86 0.3 0 0.88 0.3 0 
0.9 0.3 0 0.92 0.3 0 0.94 0.3 0 
0.96 0.3 0 0.98 0.3 0 1 0.3 0 
0 0.32 0 0.02 0.32 0 0.04 0.32 0 
0.06 0.32 0 0.08 0.32 0 0.1 0.32 0 
0.12 0.32 0 0.14 0.32 0 0.16 0.32 0 
0.18 0.32 0 0.2 0.32 0 0.22 0.32 0 
0.24 0.32 0 0.26 0.32 0 0.28 0.32 0 
0.3 0.32 0 0.32 0.32 0 0.34 0.32 0 
0.36 0.32 0 0.38 0.32 0 0.4 0.32 0 
0.42 0.32 0 0.44 0.32 0 0.46 0.32 0 
0.48 0.32 0 0.5 0.32 0 0.52 0.32 0 
0.54 0.32 0 0.56 0.32 0 0.58 0.32 0 
[...]
CELL_DATA 2500
FIELD FieldData 2
pressure 1 2500 double
-0.0056426198064 -0.0056294102911 -0.0056500944522 -0.0057120142262 -0.0058110989423 -0.0059389814392 -0.0060889518904 -0.0062571235548 -0.0064429290919 
-0.0066488041551 -0.0068794746196 -0.0071387756187 -0.007427022504 -0.0077439834196 -0.0080841910983 -0.0084395872314 -0.0087995459544 -0.0091509422896 
-0.0094783876553 -0.0097644928525 -0.0099901907539 -0.010135427062 -0.010180165832 -0.010105469431 -0.0098946371935 -0.0095343914358 -0.0090160528404 
-0.0083367745849 -0.0075009628004 -0.0065219527617 -0.0054275573855 -0.0042775954206 -0.003115514807 -0.0019971009189 -0.00098558403504 -0.0001465966823 
0.00045877815759 0.00078293495622 0.00080189990326 0.00052519669517 3.175914383e-05 -0.00059647243537 -0.0012597279529 -0.0018616780634 -0.0023370827687 
-0.0026722189034 -0.0028794752137 -0.0029799214381 -0.0029954598813 -0.0029542230295 -0.0056539440184 -0.0056390572074 -0.005661887911 -0.0057243298764 
-0.0058200392938 -0.0059400645876 -0.006077834194 -0.006230102993 -0.0063995195675 -0.0065889990661 -0.0068051204775 -0.0070523317156 -0.0073294524404 
-0.0076351838925 -0.0079651860916 -0.0083126174153 -0.0086681570932 -0.0090198007847 -0.0093527262147 -0.0096494385596 -0.0098904287126 -0.010055082508 
-0.010122707215 -0.010073701652 -0.0098907072662 -0.0095596950776 -0.0090710772109 -0.0084208123006 -0.0076114204559 -0.0066532877979 -0.0056117013311 
-0.0044991651413 -0.0033684617068 -0.0022772717381 -0.0012886253202 -0.00046714714381 0.00012749595573 0.00044943850238 0.00047705707411 0.00022366707818 
-0.0002547033584 -0.00082521343294 -0.0014306028908 -0.0019738706104 -0.0023930213389 -0.0026805792977 -0.0028546868476 -0.0029400358765 -0.0029570375865 
-0.0029147426344 -0.0056297881452 -0.0056149592433 -0.0056448115138 -0.0057136424899 -0.0058102135637 -0.0059229350167 -0.006047709554 -0.0061821724103 
-0.0063350185359 -0.0065124986586 -0.0067198460469 -0.0069607265212 -0.0072356969212 -0.0075436282251 -0.0078811953458 -0.0082425993576 -0.0086190043822 
-0.0089981287863 -0.0093642333118 -0.0096986312329 -0.0099805124404 -0.010187959278 -0.010299108917 -0.010293285124 -0.010152102739 -0.0098605861921 
-0.0094082004593 -0.0087895575379 -0.0080040059947 -0.0071026613306 -0.0060881000281 -0.0049980090244 -0.0038820665339 -0.0027975127792 -0.0018070317456 
-0.00097483282341 -0.00036037890223 -9.8112952681e-06 5.4389853513e-05 -0.00015587464212 -0.00058615931117 -0.0011390805637 -0.0017026443866 -0.0022127842143 
-0.0025906166031 -0.0028243343993 -0.0029526857698 -0.0030059193731 -0.0030062266208 -0.0029542315361 -0.005560789914 -0.0055561137556 -0.0055989601317 
-0.0056775576385 -0.0057762157806 -0.005882704561 -0.0059958785713 -0.0061196420358 -0.0062646477489 -0.0064395546276 -0.0066503840477 -0.0069012692014 
-0.0071940202011 -0.0075283013257 -0.0079013883522 -0.0083072029006 -0.0087357019321 -0.0091727743798 -0.0096006053576 -0.0099984376356 -0.010343618574 
-0.010612741193 -0.010782748745 -0.010832081018 -0.01074183825 -0.010496873719 -0.010086817264 -0.0095071031409 -0.0087673422798 -0.0079011620656 
-0.0069118861655 -0.0058385626042 -0.0047288631331 -0.0036382557926 -0.0026278881954 -0.0017608140317 -0.0010961274584 -0.00068091542775 -0.00054050312096 
-0.00066843647569 -0.0010192691068 -0.0015094399809 -0.002032538912 -0.0025037581986 -0.0028625086138 -0.0030598275203 -0.0031481758958 -0.0031686627301 
-0.0031500645322 -0.0030962932111 -0.005445145224 -0.0054592542255 -0.0055193539657 -0.0056082904233 -0.0057089929896 -0.005814247031 -0.0059253423745 
-0.0060516443938 -0.0062051894359 -0.0063959877322 -0.0066317427606 -0.00691768065 -0.0072564588811 -0.0076480252497 -0.0080885783251 -0.0085699628013 
-0.0090794821152 -0.0096001663657 -0.010111552549 -0.010590710637 -0.011013347281 -0.011354920757 -0.011591787007 -0.011702337227 -0.011668086516 
-0.011474710319 -0.011112948572 -0.010579202519 -0.009895211994 -0.0090599744757 -0.0080960268711 -0.0070379340126 -0.005929819997 -0.0048238801837 
-0.0037783068028 -0.0028538745538 -0.0021086950826 -0.0015909844502 -0.0013302472222 -0.0013282027081 -0.0015521631553 -0.0019349688979 -0.0023854428829 
-0.0028093201838 -0.003124092507 -0.0033208427068 -0.0033900455666 -0.0033941046948 -0.0033675576476 -0.0033220862084 -0.0052829797089 -0.0053215096763 
-0.0053993167857 -0.0054974228699 -0.0056068650197 -0.0057203831838 -0.0058450814043 -0.0059932950955 -0.0061777048887 -0.0064097810508 -0.0066984004495 
-0.007049460731 -0.007465645998 -0.0079452913718 -0.0084819654819 -0.009064302814 -0.0096762256319 -0.010297788634 -0.010906171022 -0.011476731391 
-0.011984142047 -0.01240351198 -0.012711459209 -0.01288716282 -0.012913378975 -0.012777380022 -0.012471857357 -0.011995890986 -0.011361997496 
-0.010566184358 -0.0096317922346 -0.0085904011033 -0.0074820398119 -0.00635446852 -0.0052616217596 -0.0042608308707 -0.003408437335 -0.0027536304384 
-0.0023307976164 -0.0021514590241 -0.002197879048 -0.0024213068797 -0.002747528719 -0.003090227726 -0.0033705453467 -0.0035468980601 -0.0036297491896 
-0.0036449042304 -0.0036281617403 -0.0035993692293 -0.0050781320703 -0.0051438506271 -0.0052381976969 -0.005351299717 -0.0054756359223 -0.0056124404732 
-0.0057712333609 -0.0059646818992 -0.0062063311745 -0.0065082223844 -0.0068795231708 -0.0073258565282 -0.0078479197557 -0.0084411494709 -0.0090956211098 
-0.0097963254237 -0.01052407995 -0.011256473593 -0.011968920762 -0.012635802249 -0.013231535483 -0.0137316072 -0.014113574655 -0.014357980097 
-0.014449195131 -0.014376263272 -0.014133814465 -0.013723205079 -0.013142178313 -0.01239148824 -0.011491644867 -0.010470360057 -0.0093627769118 
-0.0082112112425 -0.0070641893843 -0.0059744602064 -0.0049956426845 -0.0041773094477 -0.003558668701 -0.0031615911383 -0.0029844575127 -0.0029989265708 
-0.0031517626477 -0.0033732625612 -0.0035933718872 -0.0037652560371 -0.0038662036227 -0.0039017231915 -0.0039112368097 -0.0039046367516 -0.0048454785337 
-0.0049396025988 -0.0050509554341 -0.0051825667593 -0.0053349502874 -0.0055134176115 -0.0057277185465 -0.0059907851787 -0.0063160690839 -0.0067152078347 
-0.0071966142397 -0.0077635418651 -0.0084135829245 -0.0091385349631 -0.0099247246003 -0.010754002552 -0.011604642089 -0.012452404283 -0.013271695026 
-0.01403658999 -0.014721856718 -0.015303919122 -0.015761670983 -0.016077212001 -0.016236564494 -0.01623038894 -0.016054777065 -0.015712207314 
-0.015188514982 -0.014487992674 -0.0136280309 -0.012631954476 -0.011529401431 -0.010356445541 -0.009155234216 -0.0079728391797 -0.0068590072771 
-0.0058626027719 -0.0050267662068 -0.0043832084655 -0.0039465703637 -0.0037102395772 -0.0036452433373 -0.0037037350936 -0.0038281267782 -0.003965013786 
-0.0040773243129 -0.0041654069354 -0.0042131472023 -0.0042313502231 -0.0046113649941 -0.0047322084751 -0.0048624510441 -0.0050216394091 -0.0052165648056 
-0.0054538964783 -0.0057436183798 -0.006098214381 -0.006530092535 -0.0070495716229 -0.0076622198622 -0.0083678728483 -0.0091603059163 -0.010027466032 
-0.010952488352 -0.011914575712 -0.012890062196 -0.013853570562 -0.014779034304 -0.015640741404 -0.016414277896 -0.017077285509 -0.017610143423 
-0.017996573649 -0.018224183832 -0.018285037505 -0.01817629061 -0.017900913499 -0.017436806648 -0.016790262238 -0.015975484491 -0.015011201641 
-0.013921209552 -0.012734830704 -0.011487082324 -0.010218315565 -0.0089730777694 -0.0077979717652 -0.0067384138174 -0.0058344196477 -0.0051158584091 
-0.0045979293019 -0.0042778408952 -0.0041337564913 -0.0041270807418 -0.0042092133831 -0.0043339083865 -0.0044601871513 -0.0045450455185 -0.0045883081731 
-0.0044124890785 -0.004556540809 -0.0047115135554 -0.0049078381815 -0.0051571603957 -0.0054674053662 -0.0058484775735 -0.0063115957065 -0.0068674788341 
-0.0075231760194 -0.0082804214377 -0.0091349548676 -0.010076487395 -0.011089618212 -0.012154655774 -0.013248654699 -0.014346574192 -0.01542230367 
-0.016449749292 -0.017403793466 -0.018261050064 -0.019000546592 -0.019604270315 -0.020057595905 -0.020349699278 -0.020473948992 -0.020428306742 
-0.020215795106 -0.019810858892 -0.019220457887 -0.018455700181 -0.017530786867 -0.016463669053 -0.015276716774 -0.013997296848 -0.012658118178 
-0.011297143113 -0.0099568531344 -0.0086826788466 -0.0075204812712 -0.0065131092348 -0.0056961944361 -0.0050934527688 -0.0047118485362 -0.004537225725 
-0.0045318958105 -0.0046376962848 -0.0047865112797 -0.00492039493 -0.0049916127875 -0.0042920140376 -0.0044586400175 -0.0046412401695 -0.0048807532525 
-0.0051923586758 -0.0055850702872 -0.0060679772736 -0.0066506945009 -0.0073405476483 -0.0081404028007 -0.0090475924017 -0.010053473348 -0.011144121645 
-0.012301026148 -0.013502018435 -0.014722433403 -0.015936139574 -0.017116654095 -0.018238156729 -0.019276292318 -0.020208894277 -0.02101653371 
-0.021682912275 -0.022195194486 -0.02254421274 -0.022724606771 -0.022734983346 -0.022578146073 -0.022229371047 -0.021695426695 -0.020984584179 
-0.020106860217 -0.019074642026 -0.017903443493 -0.016612769682 -0.015227019954 -0.013776319202 -0.012297097182 -0.010832170853 -0.0094300568511 
-0.0081432024966 -0.0070247692738 -0.0061235038719 -0.0054761779372 -0.0050974005473 -0.0049681738308 -0.0050290964323 -0.0051902774436 -0.0053649334474 
-0.0054632817744 -0.0042917562704 -0.004477575196 -0.0046885757511 -0.0049737881494 -0.0053515617394 -0.0058312614955 -0.006421035081 -0.0071275076425 
-0.0079537771494 -0.0088981453446 -0.0099532632573 -0.011106505984 -0.012340477813 -0.01363376287 -0.014962035084 -0.016299088447 -0.0176179657 
-0.018892052343 -0.020095936224 -0.021206214835 -0.022202108527 -0.023065889086 -0.023783208127 -0.024343196926 -0.024738433361 -0.024964862154 
-0.025021701306 -0.024911450535 -0.024613678777 -0.024134682636 -0.023480292338 -0.022656841803 -0.021671686765 -0.020533928144 -0.019255393068 
-0.017851918898 -0.016344900387 -0.014762976158 -0.013143637775 -0.011534410427 -0.0099930627986 -0.0085860289351 -0.0073838727764 -0.0064523494139 
-0.0058378488495 -0.0055479331194 -0.0055336066792 -0.0056910740972 -0.0058949910418 -0.0060205886524 -0.0044414754063 -0.0046418832278 -0.0048796858754 
-0.0052103658115 -0.005654377487 -0.006221287801 -0.0069172511032 -0.0077451202178 -0.008703602476 -0.0097862262534 -0.010981397934 -0.012272681298 
-0.013639325204 -0.015057265798 -0.016500125037 -0.017940336598 -0.019350332914 -0.020703459087 -0.021974881905 -0.023142323175 -0.024186570242 
-0.025091871473 -0.025846020798 -0.026440252602 -0.026869019549 -0.027129650772 -0.027222061657 -0.027148530008 -0.026895241155 -0.02646810875 
-0.025870926464 -0.025106992996 -0.024179419388 -0.023091692857 -0.021848634297 -0.020457826978 -0.018931579259 -0.017289425465 -0.015561036769 
-0.01378920382 -0.012032219114 -0.010364501938 -0.0088736845826 -0.007651768588 -0.0067779108936 -0.0062921959892 -0.0061660500757 -0.0062893755295 
-0.0065023758724 -0.0066722547486 -0.0047576190997 -0.0049667638503 -0.0052283655631 -0.005602009383 -0.0061095243587 -0.0067598061888 -0.0075562040558 
-0.008497802464 -0.0095788289327 -0.010788552655 -0.01211138922 -0.013527196299 -0.015012116623 -0.016539522726 -0.018081119181 -0.019608201431 
-0.021092642851 -0.02250790373 -0.023829915988 -0.025037699287 -0.026113891972 -0.027044893739 -0.027820775208 -0.028435014015 -0.028884016529 
-0.02916664814 -0.02928370345 -0.029237372272 -0.029021582643 -0.028641916729 -0.028100587616 -0.027398609722 -0.026535848301 -0.02551136586 
-0.024324152721 -0.022974426376 -0.021465692249 -0.01980770617 -0.018020363182 -0.016138281569 -0.01421540612 -0.012328271367 -0.010575640538 
-0.0090712491183 -0.0079258775521 -0.0072163570558 -0.0069454321975 -0.0070130868689 -0.0072418591123 -0.0074428982896 -0.0052423454632 -0.0054543017079 
-0.0057359069304 -0.0061486408125 -0.0067145728044 -0.0074409072088 -0.0083281924511 -0.009371778917 -0.010561993684 -0.011884231211 -0.013319082265 
-0.014842986848 -0.016429101008 -0.018048377085 -0.019670851196 -0.021266726618 -0.022807473732 -0.024266881747 -0.025621794705 -0.026852827127 
-0.027944619565 -0.028885829526 -0.029668913625 -0.030289609128 -0.030746411561 -0.031039904621 -0.031171998804 -0.031144355365 -0.030959437303 
-0.030621866139 -0.030132796368 -0.029491815884 -0.028696760074 -0.027743716238 -0.026627391876 -0.025342065391 -0.023883410755 -0.022251523899 
-0.020455382661 -0.01851870193 -0.016486627371 -0.014431863915 -0.012457633182 -0.010693418083 -0.0092783562157 -0.008327806594 -0.0078842165843 
-0.0078703916128 -0.0080955864303 -0.0083320852774 -0.0058853612683 -0.006094889587 -0.0063925500456 -0.0068396025899 -0.0074568585855 -0.0082495587263 
-0.009215531505 -0.010346956165 -0.011630772159 -0.013048765125 -0.014578052229 -0.016191849248 -0.017860535434 -0.019552931608 -0.021237500832 
-0.022883525042 -0.024462324077 -0.0259481431 -0.027319064731 -0.028557428032 -0.029649952014 -0.030587639006 -0.031365276884 -0.031980945813 
-0.032435287896 -0.032730667709 -0.032870355066 -0.032854596301 -0.032694758736 -0.032393201097 -0.03195075345 -0.031366509327 -0.030637474174 
-0.029758285557 -0.028721136356 -0.027516183964 -0.02613286803 -0.024562612169 -0.022803373777 -0.020866286294 -0.018784106847 -0.016620208423 
-0.014475371165 -0.012487731093 -0.010819440112 -0.0096232417642 -0.0089865152587 -0.0088666132982 -0.0090712330021 -0.0093401576977 -0.0066667619749 
-0.0068696414253 -0.0071795923888 -0.0076553287537 -0.0083155525653 -0.0091634957428 -0.01019468161 -0.011398695029 -0.012759441586 -0.01425550085 
-0.015860794273 -0.017545628615 -0.019277939058 -0.021024609564 -0.022752731281 -0.024430963324 -0.026030614965 -0.027526741678 -0.028898785169 
-0.030130867605 -0.031211880412 -0.032135061258 -0.032897594291 -0.033499853012 -0.03394447611 -0.034235442299 -0.034377028707 -0.034370134703 
-0.034229701075 -0.033957632158 -0.033554753415 -0.033020342373 -0.032351627833 -0.031543188771 -0.030586424844 -0.029469387467 -0.028177384496 
-0.026694983665 -0.025010127554 -0.023120966193 -0.021045521822 -0.01883326009 -0.016575922942 -0.014412599437 -0.012521394115 -0.011088513175 
-0.010248275779 -0.010002269359 -0.01016991788 -0.010463382948 -0.0075600196173 -0.0077531538213 -0.0080715699298 -0.008569783847 -0.0092640200746 
-0.010155634632 -0.011238355955 -0.012499553064 -0.013920502404 -0.015476921205 -0.017139953126 -0.018877372199 -0.020654985827 -0.022437996394 
-0.024192464138 -0.025886621672 -0.027492128701 -0.028984992223 -0.030346062053 -0.031561359268 -0.032621800433 -0.033522953315 -0.034264304037 
-0.034848284741 -0.035279285127 -0.035562471018 -0.035702847955 -0.035702599239 -0.035577073758 -0.035328266221 -0.034957364462 -0.034464364958 
-0.033847446516 -0.033102190026 -0.032220721176 -0.031190961261 -0.02999643759 -0.028617311145 -0.027033553416 -0.025231282078 -0.023212914589 
-0.021010767447 -0.018701801177 -0.016418360964 -0.01434630596 -0.012699036939 -0.011656686069 -0.011272132313 -0.011390640917 -0.011706832398 
-0.0085348863247 -0.0087158572786 -0.0090387066959 -0.0095529926125 -0.010272288674 -0.011196357145 -0.012317432797 -0.013620996144 -0.01508605288 
-0.016685927428 -0.018389404511 -0.020162147498 -0.021968170149 -0.02377136248 -0.025537046367 -0.027233373858 -0.02883255158 -0.03031157647 
-0.03165284024 -0.032844097125 -0.033878427961 -0.034753619751 -0.035471195326 -0.036035374469 -0.036451722054 -0.036726146103 -0.036864082143 
-0.036869164286 -0.036755041252 -0.036524015626 -0.036177850406 -0.035717469644 -0.035142395967 -0.034449916691 -0.033633998777 -0.032684131145 
-0.031584365027 -0.030313215712 -0.028845494912 -0.027157467722 -0.025236644571 -0.023096590809 -0.020795089036 -0.018450687995 -0.016248344358 
-0.014420568338 -0.01318908508 -0.012661376775 -0.012719995338 -0.01304956074 -0.0095596922839 -0.0097262592358 -0.010049344083 -0.010573369126 
-0.011309296693 -0.012255415612 -0.013402616332 -0.0147347711 -0.016229052547 -0.017856837759 -0.01958503339 -0.021377611953 -0.023197181584 
-0.02500672286 -0.026771150529 -0.028458803827 -0.03004247376 -0.03150028514 -0.032816015912 -0.033979310947 -0.034985312033 -0.035833767173 
-0.036527990221 -0.037073336602 -0.037476074803 -0.037742439233 -0.037877969963 -0.03788769926 -0.037782397639 -0.037564705483 -0.037236927212 
-0.036800926444 -0.036257668504 -0.035606436114 -0.034843737397 -0.033961859899 -0.032947303217 -0.031779599839 -0.030431578115 -0.028872771295 
-0.027077946119 -0.025042099504 -0.022801186152 -0.020454139939 -0.018176587291 -0.016210876572 -0.014813347275 -0.0141455996 -0.014136480698 
-0.014470807655 -0.010603213404 -0.01075295214 -0.01107192254 -0.011599698729 -0.012344634507 -0.013303439564 -0.014465728096 -0.015814073624 
-0.017324234416 -0.018966121402 -0.020705243632 -0.022504295356 -0.024324962645 -0.02612966343 -0.027883232931 -0.029554267212 -0.031116263853 
-0.032548364807 -0.033835861457 -0.034970226753 -0.035948414639 -0.036771926411 -0.037445187975 -0.037974266549 -0.038365695841 -0.038625637695 
-0.038759549495 -0.038773619793 -0.038675321713 -0.038467517993 -0.038152923431 -0.037734185908 -0.037213593302 -0.036592461859 -0.035870075851 
-0.035042190078 -0.034099083657 -0.033023483287 -0.031789308189 -0.030362983499 -0.028709887579 -0.026808370389 -0.024671861211 -0.022375565659 
-0.02007826131 -0.018022444001 -0.016490018002 -0.015692789553 -0.015611879387 -0.015943290645 -0.01163638098 -0.011765953869 -0.012076433785 
-0.012602549058 -0.013349795902 -0.014313045225 -0.015480713178 -0.01683436668 -0.018348771202 -0.019992862613 -0.021731194547 -0.023525693491 
-0.025337523642 -0.027128905611 -0.028864731657 -0.030513954792 -0.032050741288 -0.033455313917 -0.034714484105 -0.035821294809 -0.036774335064 
-0.03757618837 -0.038232020675 -0.038748186915 -0.039131111742 -0.039386731693 -0.039520119499 -0.03953831218 -0.039445704616 -0.039245180022 
-0.038939659186 -0.038532377898 -0.038026772544 -0.037425977082 -0.036731952209 -0.03594405478 -0.035056960688 -0.034058059538 -0.032924925232 
-0.031624504785 -0.030116874659 -0.028367110506 -0.026367364865 -0.024167010502 -0.021901959423 -0.019805555248 -0.018174996655 -0.017265494432 
-0.017112984286 -0.017435198223 -0.012634430163 -0.012736627746 -0.013035297642 -0.013555215317 -0.014299049804 -0.015259654723 -0.016424339788 
-0.017773944044 -0.019282684472 -0.020918972865 -0.022646907834 -0.024428109995 -0.026223616579 -0.027995662966 -0.029709302597 -0.03133388488 
-0.032844255796 -0.034221795756 -0.035454569704 -0.036537024018 -0.037468748819 -0.038253035375 -0.038895395409 -0.039402138235 -0.039779510763 
-0.040032968552 -0.040166998723 -0.040188742527 -0.04010082492 -0.03990557888 -0.039605934902 -0.039205589979 -0.03870889613 -0.038120521058 
-0.037444730511 -0.036684174391 -0.035837969953 -0.034898857835 -0.033849849671 -0.032661566044 -0.031293030773 -0.029700395566 -0.027857482143 
-0.025787820247 -0.023600394931 -0.021511237522 -0.019822237503 -0.018823019196 -0.018603405145 -0.018911906915 -0.013569508634 -0.013647971342 
-0.013924491356 -0.01443448454 -0.015170169566 -0.016122090912 -0.017276670985 -0.018614289035 -0.020109031716 -0.021729275103 -0.023439152956 
-0.025200410081 -0.02697423248 -0.028723020676 -0.030412082885 -0.032011178288 -0.033495962394 -0.034848734725 -0.036058628985 -0.037120928647 
-0.038035780552 -0.038806834318 -0.039439607218 -0.039940329928 -0.040314838531 -0.040568138685 -0.040704287704 -0.040727448324 -0.040643967487 
-0.040452464666 -0.040156207751 -0.039759330559 -0.039266937288 -0.038684866147 -0.038019191107 -0.037275342029 -0.036456465985 -0.035560702149 
-0.034577417988 -0.033483205319 -0.032239882218 -0.030799413857 -0.029121500748 -0.027205773863 -0.025132412287 -0.023093709798 -0.021386160967 
-0.020323446816 -0.02004517424 -0.02033737037 -0.014417736699 -0.014483454972 -0.014732930203 -0.015221085031 -0.015945034722 -0.016882944906 