# vtk DataFile Version 4.1
vtk output
ASCII
DATASET STRUCTURED_GRID
DIMENSIONS 51 51 1
POINTS 2601 float
0 0 0 0.02 0 0 0.04 0 0 
0.06 0 0 0.08 0 0 0.1 0 0 
0.12 0 0 0.14 0 0 0.16 0 0 
0.18 0 0 0.2 0 0 0.22 0 0 
0.24 0 0 0.26 0 0 0.28 0 0 
0.3 0 0 0.32 0 0 0.34 0 0 
0.36 0 0 0.38 0 0 0.4 0 0 
0.42 0 0 0.44 0 0 0.46 0 0 
0.48 0 0 0.5 0 0 0.52 0 0 
0.54 0 0 0.56 0 0 0.58 0 0 
0.6 0 0 0.62 0 0 0.64 0 0 
0.66 0 0 0.68 0 0 0.7 0 0 
0.72 0 0 0.74 0 0 0.76 0 0 
0.78 0 0 0.8 0 0 0.82 0 0 
0.84 0 0 0.86 0 0 0.88 0 0 
0.9 0 0 0.92 0 0 0.94 0 0 
0.96 0 0 0.98 0 0 1 0 0 
0 0.02 0 0.02 0.02 0 0.04 0.02 0 
0.06 0.02 0 0.08 0.02 0 0.1 0.02 0 
0.12 0.02 0 0.14 0.02 0 0.16 0.02 0 
0.18 0.02 0 0.2 0.02 0 0.22 0.02 0 
0.24 0.02 0 0.26 0.02 0 0.28 0.02 0 
0.3 0.02 0 0.32 0.02 0 0.34 0.02 0 
0.36 0.02 0 0.38 0.02 0 0.4 0.02 0 
0.42 0.02 0 0.44 0.02 0 0.46 0.02 0 
0.48 0.02 0 0.5 0.02 0 0.52 0.02 0 
0.54 0.02 0 0.56 0.02 0 0.58 0.02 0 
0.6 0.02 0 0.62 0.02 0 0.64 0.02 0 
0.66 0.02 0 0.68 0.02 0 0.7 0.02 0 
0.72 0.02 0 0.74 0.02 0 0.76 0.02 0 
0.78 0.02 0 0.8 0.02 0 0.82 0.02 0 
0.84 0.02 0 0.86 0.02 0 0.88 0.02 0 
0.9 0.02 0 0.92 0.02 0 0.94 0.02 0 
0.96 0.02 0 0.98 0.02 0 1 0.02 0 
0 0.04 0 0.02 0.04 0 0.04 0.04 0 
0.06 0.04 0 0.08 0.04 0 0.1 0.04 0 
0.12 0.04 0 0.14 0.04 0 0.16 0.04 0 
0.18 0.04 0 0.2 0.04 0 0.22 0.04 0 
0.24 0.04 0 0.26 0.04 0 0.28 0.04 0 
0.3 0.04 0 0.32 0.04 0 0.34 0.04 0 
0.36 0.04 0 0.38 0.04 0 0.4 0.04 0 
0.42 0.04 0 0.44 0.04 0 0.46 0.04 0 
0.48 0.04 0 0.5 0.04 0 0.52 0.04 0 
0.54 0.04 0 0.56 0.04 0 0.58 0.04 0 
0.6 0.04 0 0.62 0.04 0 0.64 0.04 0 
0.66 0.04 0 0.68 0.04 0 0.7 0.04 0 
0.72 0.04 0 0.74 0.04 0 0.76 0.04 0 
0.78 0.04 0 0.8 0.04 0 0.82 0.04 0 
0.84 0.04 0 0.86 0.04 0 0.88 0.04 0 
0.9 0.04 0 0.92 0.04 0 0.94 0.04 0 
0.96 0.04 0 0.98 0.04 0 1 0.04 0 
0 0.06 0 0.02 0.06 0 0.04 0.06 0 
0.06 0.06 0 0.08 0.06 0 0.1 0.06 0 
0.12 0.06 0 0.14 0.06 0 0.16 0.06 0 
0.18 0.06 0 0.2 0.06 0 0.22 0.06 0 
0.24 0.06 0 0.26 0.06 0 0.28 0.06 0 
0.3 0.06 0 0.32 0.06 0 0.34 0.06 0 
0.36 0.06 0 0.38 0.06 0 0.4 0.06 0 
0.42 0.06 0 0.44 0.06 0 0.46 0.06 0 
0.48 0.06 0 0.5 0.06 0 0.52 0.06 0 
0.54 0.06 0 0.56 0.06 0 0.58 0.06 0 
0.6 0.06 0 0.62 0.06 0 0.64 0.06 0 
0.66 0.06 0 0.68 0.06 0 0.7 0.06 0 
0.72 0.06 0 0.74 0.06 0 0.76 0.06 0 
0.78 0.06 0 0.8 0.06 0 0.82 0.06 0 
0.84 0.06 0 0.86 0.06 0 0.88 0.06 0 
0.9 0.06 0 0.92 0.06 0 0.94 0.06 0 
0.96 0.06 0 0.98 0.06 0 1 0.06 0 
0 0.08 0 0.02 0.08 0 0.04 0.08 0 
0.06 0.08 0 0.08 0.08 0 0.1 0.08 0 
0.12 0.08 0 0.14 0.08 0 0.16 0.08 0 
0.18 0.08 0 0.2 0.08 0 0.22 0.08 0 
0.24 0.08 0 0.26 0.08 0 0.28 0.08 0 
0.3 0.08 0 0.32 0.08 0 0.34 0.08 0 
0.36 0.08 0 0.38 0.08 0 0.4 0.08 0 
0.42 0.08 0 0.44 0.08 0 0.46 0.08 0 
0.48 0.08 0 0.5 0.08 0 0.52 0.08 0 
0.54 0.08 0 0.56 0.08 0 0.58 0.08 0 
0.6 0.08 0 0.62 0.08 0 0.64 0.08 0 
0.66 0.08 0 0.68 0.08 0 0.7 0.08 0 
0.72 0.08 0 0.74 0.08 0 0.76 0.08 0 
0.78 0.08 0 0.8 0.08 0 0.82 0.08 0 
0.84 0.08 0 0.86 0.08 0 0.88 0.08 0 
0.9 0.08 0 0.92 0.08 0 0.94 0.08 0 
0.96 0.08 0 0.98 0.08 0 1 0.08 0 
0 0.1 0 0.02 0.1 0 0.04 0.1 0 
0.06 0.1 0 0.08 0.1 0 0.1 0.1 0 
0.12 0.1 0 0.14 0.1 0 0.16 0.1 0 
0.18 0.1 0 0.2 0.1 0 0.22 0.1 0 
0.24 0.1 0 0.26 0.1 0 0.28 0.1 0 
0.3 0.1 0 0.32 0.1 0 0.34 0.1 0 
0.36 0.1 0 0.38 0.1 0 0.4 0.1 0 
0.42 0.1 0 0.44 0.1 0 0.46 0.1 0 
0.48 0.1 0 0.5 0.1 0 0.52 0.1 0 
0.54 0.1 0 0.56 0.1 0 0.58 0.1 0 
0.6 0.1 0 0.62 0.1 0 0.64 0.1 0 
0.66 0.1 0 0.68 0.1 0 0.7 0.1 0 
0.72 0.1 0 0.74 0.1 0 0.76 0.1 0 
0.78 0.1 0 0.8 0.1 0 0.82 0.1 0 
0.84 0.1 0 0.86 0.1 0 0.88 0.1 0 
0.9 0.1 0 0.92 0.1 0 0.94 0.1 0 
0.96 0.1 0 0.98 0.1 0 1 0.1 0 
0 0.12 0 0.02 0.12 0 0.04 0.12 0 
0.06 0.12 0 0.08 0.12 0 0.1 0.12 0 
0.12 0.12 0 0.14 0.12 0 0.16 0.12 0 
0.18 0.12 0 0.2 0.12 0 0.22 0.12 0 
0.24 0.12 0 0.26 0.12 0 0.28 0.12 0 
0.3 0.12 0 0.32 0.12 0 0.34 0.12 0 
0.36 0.12 0 0.38 0.12 0 0.4 0.12 0 
0.42 0.12 0 0.44 0.12 0 0.46 0.12 0 
0.48 0.12 0 0.5 0.12 0 0.52 0.12 0 
0.54 0.12 0 0.56 0.12 0 0.58 0.12 0 
0.6 0.12 0 0.62 0.12 0 0.64 0.12 0 
0.66 0.12 0 0.68 0.12 0 0.7 0.12 0 
0.72 0.12 0 0.74 0.12 0 0.76 0.12 0 
0.78 0.12 0 0.8 0.12 0 0.82 0.12 0 
0.84 0.12 0 0.86 0.12 0 0.88 0.12 0 
0.9 0.12 0 0.92 0.12 0 0.94 0.12 0 
0.96 0.12 0 0.98 0.12 0 1 0.12 0 
0 0.14 0 0.02 0.14 0 0.04 0.14 0 
0.06 0.14 0 0.08 0.14 0 0.1 0.14 0 
0.12 0.14 0 0.14 0.14 0 0.16 0.14 0 
0.18 0.14 0 0.2 0.14 0 0.22 0.14 0 
0.24 0.14 0 0.26 0.14 0 0.28 0.14 0 
0.3 0.14 0 0.32 0.14 0 0.34 0.14 0 
0.36 0.14 0 0.38 0.14 0 0.4 0.14 0 
0.42 0.14 0 0.44 0.14 0 0.46 0.14 0 
0.48 0.14 0 0.5 0.14 0 0.52 0.14 0 
0.54 0.14 0 0.56 0.14 0 0.58 0.14 0 
0.6 0.14 0 0.62 0.14 0 0.64 0.14 0 
0.66 0.14 0 0.68 0.14 0 0.7 0.14 0 
0.72 0.14 0 0.74 0.14 0 0.76 0.14 0 
0.78 0.14 0 0.8 0.14 0 0.82 0.14 0 
0.84 0.14 0 0.86 0.14 0 0.88 0.14 0 
0.9 0.14 0 0.92 0.14 0 0.94 0.14 0 
0.96 0.14 0 0.98 0.14 0 1 0.14 0 
0 0.16 0 0.02 0.16 0 0.04 0.16 0 
0.06 0.16 0 0.08 0.16 0 0.1 0.16 0 
0.12 0.16 0 0.14 0.16 0 0.16 0.16 0 
0.18 0.16 0 0.2 0.16 0 0.22 0.16 0 
0.24 0.16 0 0.26 0.16 0 0.28 0.16 0 
0.3 0.16 0 0.32 0.16 0 0.34 0.16 0 
0.36 0.16 0 0.38 0.16 0 0.4 0.16 0 
0.42 0.16 0 0.44 0.16 0 0.46 0.16 0 
0.48 0.16 0 0.5 0.16 0 0.52 0.16 0 
0.54 0.16 0 0.56 0.16 0 0.58 0.16 0 
0.6 0.16 0 0.62 0.16 0 0.64 0.16 0 
0.66 0.16 0 0.68 0.16 0 0.7 0.16 0 
0.72 0.16 0 0.74 0.16 0 0.76 0.16 0 
0.78 0.16 0 0.8 0.16 0 0.82 0.16 0 
0.84 0.16 0 0.86 0.16 0 0.88 0.16 0 
0.9 0.16 0 0.92 0.16 0 0.94 0.16 0 
0.96 0.16 0 0.98 0.16 0 1 0.16 0 
0 0.18 0 0.02 0.18 0 0.04 0.18 0 
0.06 0.18 0 0.08 0.18 0 0.1 0.18 0 
0.12 0.18 0 0.14 0.18 0 0.16 0.18 0 
0.18 0.18 0 0.2 0.18 0 0.22 0.18 0 
0.24 0.18 0 0.26 0.18 0 0.28 0.18 0 
0.3 0.18 0 0.32 0.18 0 0.34 0.18 0 
0.36 0.18 0 0.38 0.18 0 0.4 0.18 0 
0.42 0.18 0 0.44 0.18 0 0.46 0.18 0 
0.48 0.18 0 0.5 0.18 0 0.52 0.18 0 
0.54 0.18 0 0.56 0.18 0 0.58 0.18 0 
0.6 0.18 0 0.62 0.18 0 0.64 0.18 0 
0.66 0.18 0 0.68 0.18 0 0.7 0.18 0 
0.72 0.18 0 0.74 0.18 0 0.76 0.18 0 
0.78 0.18 0 0.8 0.18 0 0.82 0.18 0 
0.84 0.18 0 0.86 0.18 0 0.88 0.18 0 
0.9 0.18 0 0.92 0.18 0 0.94 0.18 0 
0.96 0.18 0 0.98 0.18 0 1 0.18 0 
0 0.2 0 0.02 0.2 0 0.04 0.2 0 
0.06 0.2 0 0.08 0.2 0 0.1 0.2 0 
0.12 0.2 0 0.14 0.2 0 0.16 0.2 0 
0.18 0.2 0 0.2 0.2 0 0.22 0.2 0 
0.24 0.2 0 0.26 0.2 0 0.28 0.2 0 
0.3 0.2 0 0.32 0.2 0 0.34 0.2 0 
0.36 0.2 0 0.38 0.2 0 0.4 0.2 0 
0.42 0.2 0 0.44 0.2 0 0.46 0.2 0 
0.48 0.2 0 0.5 0.2 0 0.52 0.2 0 
0.54 0.2 0 0.56 0.2 0 0.58 0.2 0 
0.6 0.2 0 0.62 0.2 0 0.64 0.2 0 
0.66 0.2 0 0.68 0.2 0 0.7 0.2 0 
0.72 0.2 0 0.74 0.2 0 0.76 0.2 0 
0.78 0.2 0 0.8 0.2 0 0.82 0.2 0 
0.84 0.2 0 0.86 0.2 0 0.88 0.2 0 
0.9 0.2 0 0.92 0.2 0 0.94 0.2 0 
0.96 0.2 0 0.98 0.2 0 1 0.2 0 
0 0.22 0 0.02 0.22 0 0.04 0.22 0 
0.06 0.22 0 0.08 0.22 0 0.1 0.22 0 
0.12 0.22 0 0.14 0.22 0 0.16 0.22 0 
0.18 0.22 0 0.2 0.22 0 0.22 0.22 0 
0.24 0.22 0 0.26 0.22 0 0.28 0.22 0 
0.3 0.22 0 0.32 0.22 0 0.34 0.22 0 
0.36 0.22 0 0.38 0.22 0 0.4 0.22 0 
0.42 0.22 0 0.44 0.22 0 0.46 0.22 0 
0.48 0.22 0 0.5 0.22 0 0.52 0.22 0 
0.54 0.22 0 0.56 0.22 0 0.58 0.22 0 
0.6 0.22 0 0.62 0.22 0 0.64 0.22 0 
0.66 0.22 0 0.68 0.22 0 0.7 0.22 0 
0.72 0.22 0 0.74 0.22 0 0.76 0.22 0 
0.78 0.22 0 0.8 0.22 0 0.82 0.22 0 
0.84 0.22 0 0.86 0.22 0 0.88 0.22 0 
0.9 0.22 0 0.92 0.22 0 0.94 0.22 0 
0.96 0.22 0 0.98 0.22 0 1 0.22 0 
0 0.24 0 0.02 0.24 0 0.04 0.24 0 
0.06 0.24 0 0.08 0.24 0 0.1 0.24 0 
0.12 0.24 0 0.14 0.24 0 0.16 0.24 0 
0.18 0.24 0 0.2 0.24 0 0.22 0.24 0 
0.24 0.24 0 0.26 0.24 0 0.28 0.24 0 
0.3 0.24 0 0.32 0.24 0 0.34 0.24 0 
0.36 0.24 0 0.38 0.24 0 0.4 0.24 0 
0.42 0.24 0 0.44 0.24 0 0.46 0.24 0 
0.48 0.24 0 0.5 0.24 0 0.52 0.24 0 
0.54 0.24 0 0.56 0.24 0 0.58 0.24 0 
0.6 0.24 0 0.62 0.24 0 0.64 0.24 0 
0.66 0.24 0 0.68 0.24 0 0.7 0.24 0 
0.72 0.24 0 0.74 0.24 0 0.76 0.24 0 
0.78 0.24 0 0.8 0.24 0 0.82 0.24 0 
0.84 0.24 0 0.86 0.24 0 0.88 0.24 0 
0.9 0.24 0 0.92 0.24 0 0.94 0.24 0 
0.96 0.24 0 0.98 0.24 0 1 0.24 0 
0 0.26 0 0.02 0.26 0 0.04 0.26 0 
0.06 0.26 0 0.08 0.26 0 0.1 0.26 0 
0.12 0.26 0 0.14 0.26 0 0.16 0.26 0 
0.18 0.26 0 0.2 0.26 0 0.22 0.26 0 
0.24 0.26 0 0.26 0.26 0 0.28 0.26 0 
0.3 0.26 0 0.32 0.26 0 0.34 0.26 0 
0.36 0.26 0 0.38 0.26 0 0.4 0.26 0 
0.42 0.26 0 0.44 0.26 0 0.46 0.26 0 
0.48 0.26 0 0.5 0.26 0 0.52 0.26 0 
0.54 0.26 0 0.56 0.26 0 0.58 0.26 0 
0.6 0.26 0 0.62 0.26 0 0.64 0.26 0 
0.66 0.26 0 0.68 0.26 0 0.7 0.26 0 
0.72 0.26 0 0.74 0.26 0 0.76 0.26 0 
0.78 0.26 0 0.8 0.26 0 0.82 0.26 0 
0.84 0.26 0 0.86 0.26 0 0.88 0.26 0 
0.9 0.26 0 0.92 0.26 0 0.94 0.26 0 
0.96 0.26 0 0.98 0.26 0 1 0.26 0 
0 0.28 0 0.02 0.28 0 0.04 0.28 0 
0.06 0.28 0 0.08 0.28 0 0.1 0.28 0 
0.12 0.28 0 0.14 0.28 0 0.16 0.28 0 
0.18 0.28 0 0.2 0.28 0 0.22 0.28 0 
0.24 0.28 0 0.26 0.28 0 0.28 0.28 0 
0.3 0.28 0 0.32 0.28 0 0.34 0.28 0 
0.36 0.28 0 0.38 0.28 0 0.4 0.28 0 
0.42 0.28 0 0.44 0.28 0 0.46 0.28 0 
0.48 0.28 0 0.5 0.28 0 0.52 0.28 0 
0.54 0.28 0 0.56 0.28 0 0.58 0.28 0 
0.6 0.28 0 0.62 0.28 0 0.64 0.28 0 
0.66 0.28 0 0.68 0.28 0 0.7 0.28 0 
0.72 0.28 0 0.74 0.28 0 0.76 0.28 0 
0.78 0.28 0 0.8 0.28 0 0.82 0.28 0 
0.84 0.28 0 0.86 0.28 0 0.88 0.28 0 
0.9 0.28 0 0.92 0.28 0 0.94 0.28 0 
0.96 0.28 0 0.98 0.28 0 1 0.28 0 
0 0.3 0 0.02 0.3 0 0.04 0.3 0 
0.06 0.3 0 0.08 0.3 0 0.1 0.3 0 
0.12 0.3 0 0.14 0.3 0 0.16 0.3 0 
0.18 0.3 0 0.2 0.3 0 0.22 0.3 0 
0.24 0.3 0 0.26 0.3 0 0.28 0.3 0 
0.3 0.3 0 0.32 0.3 0 0.34 0.3 0 
0.36 0.3 0 0.38 0.3 0 0.4 0.3 0 
0.42 0.3 0 0.44 0.3 0 0.46 0.3 0 
0.48 0.3 0 0.5 0.3 0 0.52 0.3 0 
0.54 0.3 0 0.56 0.3 0 0.58 0.3 0 
0.6 0.3 0 0.62 0.3 0 0.64 0.3 0 
0.66 0.3 0 0.68 0.3 0 0.7 0.3 0 
0.72 0.3 0 0.74 0.3 0 0.76 0.3 0 
0.78 0.3 0 0.8 0.3 0 0.82 0.3 0 
0.84 0.3 0 0.86 0.3 0 0.88 0.3 0 
0.9 0.3 0 0.92 0.3 0 0.94 0.3 0 
0.96 0.3 0 0.98 0.3 0 1 0.3 0 
0 0.32 0 0.02 0.32 0 0.04 0.32 0 
0.06 0.32 0 0.08 0.32 0 0.1 0.32 0 
0.12 0.32 0 0.14 0.32 0 0.16 0.32 0 
0.18 0.32 0 0.2 0.32 0 0.22 0.32 0 
0.24 0.32 0 0.26 0.32 0 0.28 0.32 0 
0.3 0.32 0 0.32 0.32 0 0.34 0.32 0 
0.36 0.32 0 0.38 0.32 0 0.4 0.32 0 
0.42 0.32 0 0.44 0.32 0 0.46 0.32 0 
0.48 0.32 0 0.5 0.32 0 0.52 0.32 0 
0.54 0.32 0 0.56 0.32 0 0.58 0.32 0 
[...]
CELL_DATA 2500
FIELD FieldData 2
pressure 1 2500 double
-0.0066348553208 -0.0066434456015 -0.0066638590156 -0.006693014815 -0.0067289989165 -0.006771679331 -0.0068220134813 -0.0068807569609 -0.0069479375815 
-0.0070228720913 -0.0071040712427 -0.0071896751652 -0.0072778524935 -0.0073666995354 -0.0074541205709 -0.0075376331105 -0.0076139898692 -0.0076789590257 
-0.0077272939633 -0.0077527261849 -0.0077480491535 -0.007705323279 -0.007616151993 -0.0074720727888 -0.0072651501898 -0.0069887683488 -0.0066385385078 
-0.006213307412 -0.0057162129919 -0.005155857642 -0.0045526113394 -0.0039345644451 -0.0033262350142 -0.0027574180015 -0.0022601715066 -0.0018653522413 
-0.0015984155021 -0.0014747616267 -0.0014955746269 -0.0016452925029 -0.001884559591 -0.0021737803109 -0.0024701482017 -0.0027392621793 -0.0029592578141 
-0.0031235118736 -0.0032327919273 -0.0032913750378 -0.0033058127621 -0.0032889363936 -0.0066308882137 -0.0066382233696 -0.0066556742174 -0.0066813305832 
-0.006714653446 -0.006756001289 -0.0068056215985 -0.0068633995931 -0.0069287707523 -0.0070004992517 -0.0070771389632 -0.0071573806313 -0.0072398502339 
-0.0073230778828 -0.0074053669431 -0.0074844089865 -0.007557117366 -0.0076195717367 -0.0076668904297 -0.0076931744557 -0.0076915498167 -0.0076542547086 
-0.0075728778776 -0.0074388132257 -0.0072439187082 -0.0069812796975 -0.0066460992898 -0.0062366011088 -0.0057549607605 -0.0052080067553 -0.0046271365299 
-0.0040277710864 -0.0034360443503 -0.0028816195508 -0.0023959556493 -0.0020092027717 -0.0017461056569 -0.0016213919967 -0.0016355996453 -0.0017724598927 
-0.0019976483591 -0.0022594504985 -0.0025297850185 -0.0027738593034 -0.0029722155151 -0.0031196252554 -0.0032182685928 -0.0032732619816 -0.0032899438294 
-0.0032724992653 -0.0066111156445 -0.0066201201249 -0.0066372376703 -0.0066619264691 -0.0066946304088 -0.006735600986 -0.0067846968802 -0.006841470011 
-0.0069048728487 -0.0069737429951 -0.0070472078542 -0.0071243938953 -0.0072044035212 -0.0072862665406 -0.0073685423355 -0.0074491917844 -0.0075255380345 
-0.0075940337948 -0.0076500860737 -0.0076879535891 -0.0077006726144 -0.0076801369961 -0.0076174328371 -0.0075033618034 -0.0073291050234 -0.007087001459 
-0.0067713959305 -0.0063794038189 -0.0059114758226 -0.005382104603 -0.0048141700854 -0.0042230997137 -0.0036349784226 -0.0030796047542 -0.002588688774 
-0.0021928657581 -0.0019176587914 -0.00177893316 -0.0017784648805 -0.0019009028189 -0.0021134497213 -0.0023715612208 -0.0026263163156 -0.0028582216459 
-0.0030406030411 -0.0031716289469 -0.0032568125863 -0.0033029757702 -0.0033149594416 -0.0032920540402 -0.0065784686692 -0.0065919947486 -0.0066112371665 
-0.0066371198999 -0.0066704403436 -0.0067115326067 -0.0067603529653 -0.0068162071949 -0.006878275371 -0.0069460723055 -0.0070191794682 -0.0070972402472 
-0.0071799455155 -0.0072666562886 -0.0073563116652 -0.0074473913268 -0.0075376081551 -0.0076236582391 -0.0077009883864 -0.0077635671479 -0.0078038382153 
-0.0078129343284 -0.0077810788242 -0.007698158566 -0.0075544362058 -0.0073413393167 -0.0070522341976 -0.0066831759661 -0.0062334451813 -0.0057232891973 
-0.0051645673841 -0.004576418786 -0.0039839936363 -0.0034168743708 -0.0029070231586 -0.0024858373818 -0.0021802894655 -0.0020084909009 -0.0019751878096 
-0.0020684314966 -0.0022587989163 -0.0025032391587 -0.0027535834467 -0.0029763703801 -0.0031535441504 -0.0032716359724 -0.0033441447952 -0.003380274192 
-0.003386202116 -0.0033606670125 -0.0065381258784 -0.0065583603098 -0.006581657169 -0.0066098948944 -0.0066444298504 -0.0066861273903 -0.0067350122055 
-0.0067908409159 -0.0068536404421 -0.0069234728276 -0.0070005078812 -0.0070850668654 -0.0071772581052 -0.0072769298963 -0.0073836329567 -0.0074962624048 
-0.0076127658401 -0.0077298141407 -0.0078424185975 -0.0079437953606 -0.0080254605241 -0.0080775145319 -0.0080891133197 -0.00804911824 -0.0079467999939 
-0.0077726146859 -0.0075190255849 -0.007181376799 -0.0067586660808 -0.0062686041031 -0.0057209137337 -0.0051340627345 -0.0045323171243 -0.0039446790596 
-0.0034030245879 -0.0029394145892 -0.0025825470897 -0.0023535643216 -0.0022616537526 -0.0023004548128 -0.0024464692091 -0.0026612137652 -0.0028980541397 
-0.0031137061157 -0.0032873943892 -0.0034036942446 -0.0034691413057 -0.0034987426674 -0.0035012335623 -0.0034772197997 -0.0064967483327 -0.0065252814887 
-0.0065534375375 -0.0065843845122 -0.0066205689208 -0.0066632919055 -0.0067132526018 -0.0067712363066 -0.0068379420889 -0.0069141096802 -0.0070006963692 
-0.0070985487239 -0.0072083755854 -0.0073307331466 -0.0074656535298 -0.0076123237087 -0.0077686636359 -0.0079308520932 -0.0080931000769 -0.0082476338913 
-0.0083848466812 -0.0084936857658 -0.0085621849217 -0.0085780784821 -0.0085295254621 -0.008405963793 -0.0081990249619 -0.0079035152004 -0.0075183783705 
-0.0070546654428 -0.0065219757827 -0.00593715362 -0.00532305898 -0.004707563545 -0.0041219622484 -0.003598664012 -0.0031680855319 -0.0028548838413 
-0.0026738136253 -0.0026259347451 -0.0026962182535 -0.0028538896028 -0.0030567652692 -0.0032601005852 -0.0034284054735 -0.0035497396787 -0.0036178145393 
-0.0036484183926 -0.0036528145735 -0.0036342366888 -0.0064623683788 -0.0064996208024 -0.0065325205806 -0.0065662524626 -0.0066043153046 -0.0066489536147 
-0.0067020724907 -0.0067652435278 -0.0068399049033 -0.0069276962397 -0.0070302231688 -0.0071490456338 -0.0072857038079 -0.0074413656289 -0.0076164841127 
-0.0078102875563 -0.0080202622123 -0.0082418580344 -0.0084683212046 -0.0086907312036 -0.0088982972091 -0.0090787457229 -0.0092187989606 -0.0093048596266 
-0.0093238301989 -0.0092640117999 -0.0091161440983 -0.0088744893468 -0.0085378887917 -0.0081095221984 -0.0075976586697 -0.0070173905799 -0.0063897545576 
-0.0057409492622 -0.00510111032 -0.0045024838487 -0.0039769164923 -0.0035526710401 -0.0032506776624 -0.0030807338991 -0.0030384003427 -0.0031036427237 
-0.0032424985716 -0.0034127384733 -0.0035738616338 -0.0036995320617 -0.0037786918761 -0.0038203494542 -0.0038335803635 -0.0038239717527 -0.0064433988491 
-0.0064887398098 -0.0065259070917 -0.0065622393682 -0.0066027083876 -0.0066510205146 -0.0067099869865 -0.0067819404823 -0.0068692914769 -0.0069744342826 
-0.0070997823177 -0.0072478713048 -0.0074210397826 -0.0076210564519 -0.0078485625165 -0.008102530589 -0.0083798961573 -0.0086752343736 -0.0089806936582 
-0.009286185789 -0.0095796001174 -0.0098471365022 -0.010073944236 -0.010244867091 -0.01034530029 -0.010362259832 -0.010285543982 -0.010108807735 
-0.0098306453857 -0.0094469367846 -0.0089624814894 -0.0083906022216 -0.0077502197951 -0.007065360717 -0.0063643657278 -0.0056786494834 -0.0050408885612 
-0.0044825337464 -0.004030642814 -0.0037043124472 -0.0035111171643 -0.003444371153 -0.0034821966259 -0.0035897030995 -0.0037255588552 -0.0038532586396 
-0.0039518075751 -0.0040104548674 -0.0040397907965 -0.0040424051491 -0.0064480618531 -0.0065003403688 -0.006541033191 -0.0065799682689 -0.006624108911 
-0.0066782970218 -0.0067461243545 -0.0068309105444 -0.0069358753587 -0.0070642746105 -0.0072196317662 -0.0074054839272 -0.0076249699357 -0.007880262313 
-0.0081720279565 -0.0084989369001 -0.0088572121652 -0.0092404564511 -0.009639716064 -0.010043491728 -0.010437944886 -0.010807468414 -0.011135326388 
-0.011404463946 -0.011598637796 -0.011703577033 -0.011708089728 -0.011605152005 -0.011392921511 -0.011061687658 -0.010610847525 -0.01005199354 
-0.0094017242819 -0.0086814634863 -0.0079171341722 -0.0071385143666 -0.0063781554089 -0.0056697108837 -0.0050455684167 -0.0045337858543 -0.0041544880864 
-0.0039161328935 -0.0038123616137 -0.0038206083805 -0.0039042626369 -0.0040205817139 -0.0041335382707 -0.0042213770377 -0.004273207295 -0.0042908558432 
-0.0064841644977 -0.0065418798754 -0.0065854322174 -0.0066276244758 -0.006677085342 -0.0067395399561 -0.0068195476844 -0.0069212352288 -0.0070486778737 
-0.0072063274509 -0.0073988742456 -0.0076308431635 -0.0079060342413 -0.0082269847586 -0.0085943511467 -0.0090063312089 -0.0094583850431 -0.0099431257977 
-0.010450138046 -0.010966043543 -0.011474991288 -0.011959159258 -0.012399541942 -0.012777134638 -0.013074101489 -0.013274862992 -0.013367280357 
-0.013343644394 -0.013201485862 -0.012927626231 -0.012515220171 -0.011974209523 -0.011318793032 -0.010567510223 -0.0097432748979 -0.0088732774514 
-0.0079886675668 -0.0071238032902 -0.0063148598582 -0.0055975898016 -0.0050041243467 -0.0045588048203 -0.0042733586211 -0.0041422177813 -0.0041398793252 
-0.004223552804 -0.0043444183664 -0.0044621972499 -0.0045397546685 -0.0045756258943 -0.0065586730617 -0.0066202189997 -0.0066665040992 -0.0067129937837 
-0.006769546135 -0.0068428695546 -0.0069382990824 -0.0070607460429 -0.0072154826583 -0.0074082097498 -0.0076447523246 -0.0079305516073 -0.0082701098456 
-0.0086662741179 -0.0091195395156 -0.0096276288606 -0.010185179603 -0.010783373334 -0.011409838788 -0.012049027173 -0.012682576691 -0.013290061157 
-0.013850233801 -0.01434219206 -0.014746501625 -0.01504645477 -0.015229112297 -0.015286020181 -0.015213975109 -0.014998620906 -0.014627256551 
-0.014108439254 -0.013454102366 -0.012679734202 -0.011804679884 -0.01085255677 -0.0098516586085 -0.0088351532124 -0.0078408204338 -0.006909954902 
-0.0060850387516 -0.0054057767849 -0.004903287579 -0.0045927234257 -0.004465756987 -0.004486443688 -0.0045965079803 -0.0047318803404 -0.0048477510504 
-0.0049065482613 -0.0066773272475 -0.0067414529918 -0.0067907520272 -0.0068426726463 -0.0069082367049 -0.0069949275201 -0.0071087420119 -0.007255679969 
-0.0074422391452 -0.0076753319751 -0.0079619005646 -0.0083083692708 -0.0087198755325 -0.0091994679507 -0.0097475101457 -0.010361135357 -0.011033691399 
-0.011754418338 -0.012508691436 -0.01327823311 -0.014041787886 -0.01477640228 -0.015458608816 -0.016065607658 -0.016576659306 -0.016974168328 
-0.017244439053 -0.017378434457 -0.017372362108 -0.017212342474 -0.01688192142 -0.0163886596 -0.015742433929 -0.014955639073 -0.014043673982 
-0.013025706603 -0.011925695676 -0.010773538439 -0.009606022758 -0.0084671062979 -0.0074068987099 -0.0064785736652 -0.0057324361963 -0.0052066939828 
-0.0049156290252 -0.0048383940227 -0.0049162095806 -0.005068175712 -0.0052150681921 -0.0052973220269 -0.0068445403411 -0.0069103933212 -0.0069630718467 
-0.007021651454 -0.0070980678711 -0.007200336063 -0.007335323365 -0.0075101244555 -0.0077324221246 -0.0080103419952 -0.0083519901734 -0.0087647249972 
-0.009254260216 -0.0098238840904 -0.010473668295 -0.011199726092 -0.01199357975 -0.012842245177 -0.01372826658 -0.01463025461 -0.015524162203 
-0.016384490686 -0.017185537855 -0.017902959552 -0.018514954111 -0.01900312835 -0.019353387706 -0.019556485348 -0.019608282924 -0.019496495274 
-0.019204235591 -0.0187384003 -0.018107139777 -0.017319959098 -0.016388170752 -0.015325868458 -0.014151448581 -0.012889567633 -0.011573266926 
-0.010245778585 -0.0089612164625 -0.0077830329939 -0.0067788834457 -0.0060106380292 -0.0055192127656 -0.0053064530579 -0.0053219798909 -0.0054705400717 
-0.0056435314026 -0.0057573450296 -0.0070631997114 -0.0071300079429 -0.0071864501421 -0.0072528759 -0.0073417132817 -0.0074615512889 -0.0076201249125 
-0.0078255561595 -0.0080866941058 -0.0084128772785 -0.0088133741427 -0.0092964518074 -0.0098684182096 -0.010532628438 -0.011288510348 -0.012130584516 
-0.013048310468 -0.014025924316 -0.015042751855 -0.016074417122 -0.017094044699 -0.018073538649 -0.018985318222 -0.019803687592 -0.02050586384 
-0.021073136148 -0.021491493506 -0.021751874848 -0.021850360605 -0.021776842604 -0.021517582916 -0.021079173954 -0.020468513689 -0.019692613003 
-0.018758936067 -0.017676394333 -0.01645707397 -0.015118769119 -0.013688169799 -0.01220422998 -0.010720842275 -0.0093074262794 -0.0080455465474 
-0.0070194120573 -0.0062986733215 -0.0059142838269 -0.0058344058228 -0.0059590632019 -0.006153524041 -0.0063011504853 -0.0073342319637 -0.0074011731418 
-0.007461769968 -0.0075369948016 -0.0076395574542 -0.0077786151332 -0.007962636876 -0.0082006975458 -0.0085027607836 -0.0088794249737 -0.0093411036063 
-0.0098969456455 -0.010553718725 -0.011314569289 -0.01217768381 -0.013135809932 -0.01417585553 -0.015278889595 -0.01642117452 -0.017575341682 
-0.018711577134 -0.019799524818 -0.020809875062 -0.021715612606 -0.022493478576 -0.023124926226 -0.023596459741 -0.023899920404 -0.024032229801 
-0.023985587772 -0.02375243666 -0.023339395106 -0.022752630265 -0.021997399597 -0.021078078633 -0.01999886281 -0.018765423799 -0.017387728834 
-0.015884017413 -0.014285608677 -0.012641704073 -0.011022598947 -0.0095189450099 -0.0082340406632 -0.0072662094006 -0.0066801778917 -0.0064725822761 
-0.0065508793529 -0.006759907489 -0.0069407487635 -0.0076563343325 -0.0077226732563 -0.0077876637598 -0.0078723419902 -0.0079896585329 -0.0081491101827 
-0.0083597337805 -0.0086314738028 -0.0089754647812 -0.0094035406587 -0.0099271746181 -0.01055633441 -0.011298017146 -0.012154568196 -0.013122791455 
-0.014193290931 -0.01535003846 -0.016571128822 -0.01782985579 -0.01909567194 -0.020336163783 -0.021518877304 -0.022612713741 -0.023589819705 
-0.024426898597 -0.025105946813 -0.025614698862 -0.025946510527 -0.026099601249 -0.026068667819 -0.025853789815 -0.025461895863 -0.024899166196 
-0.024170154594 -0.023277322475 -0.022221266398 -0.021001960707 -0.019621440209 -0.018088186145 -0.016423124676 -0.014666514006 -0.01288407828 
-0.011169684768 -0.0096407326586 -0.0084218762972 -0.0076138403729 -0.0072497643102 -0.0072565202212 -0.0074649452136 -0.007679330248 -0.008026168575 
-0.0080911813819 -0.0081605167987 -0.0082551062927 -0.008387820081 -0.0085681951062 -0.00880574433 -0.009111292831 -0.0094971105475 -0.0099761264446 
-0.010560871732 -0.011261922399 -0.012085940977 -0.013034338092 -0.014102325019 -0.015277968271 -0.0165425456 -0.017871422397 -0.019234661892 
-0.020598919586 -0.021929426135 -0.023191443183 -0.024352573885 -0.025384537753 -0.02626428538 -0.026974979827 -0.027506085667 -0.027852800003 
-0.028015047039 -0.027990232049 -0.027785562735 -0.027408726585 -0.026866720683 -0.026164594412 -0.025304474081 -0.024285062462 -0.023102133027 
-0.021750662944 -0.020229143953 -0.018546319706 -0.01672989966 -0.01483572706 -0.012954459414 -0.011211220302 -0.00975242937 -0.0087142581006 
-0.0081717899937 -0.0080827539971 -0.0082745523217 -0.0085186396134 -0.0084385291783 -0.0085013315445 -0.0085748569467 -0.0086795417066 -0.0088277109253 
-0.0090288424957 -0.0092928693542 -0.0096314348001 -0.010057778098 -0.010585932402 -0.011229290948 -0.011998502501 -0.012899747947 -0.013933441538 
-0.01509279346 -0.016363624168 -0.017724913951 -0.01914900718 -0.020603177584 -0.02205165827 -0.023457020236 -0.024782803215 -0.025995734266 
-0.027067296966 -0.027975228568 -0.028704247901 -0.029245671602 -0.029596715467 -0.029759132498 -0.029733177874 -0.029531167319 -0.029161967758 
-0.028634186337 -0.02795465618 -0.027126866874 -0.02614967561 -0.025016829054 -0.023718105197 -0.022242966871 -0.020587433574 -0.018764162988 
-0.016814493893 -0.01481944761 -0.012904596559 -0.011231681867 -0.009969039987 -0.0092361823282 -0.0090315264741 -0.0091919968377 -0.0094629680991 
-0.008886462593 -0.0089462359371 -0.0090236812415 -0.0091381316493 -0.009301234381 -0.0095223147077 -0.0098116061233 -0.010181427226 -0.010645946407 
-0.011220122333 -0.011917695699 -0.012749207833 -0.013720374366 -0.014830223405 -0.016070268062 -0.017424595828 -0.018869651648 -0.020375206767 
-0.021906289594 -0.023424338913 -0.024889921069 -0.026265339315 -0.027516564356 -0.02861534805 -0.029540583474 -0.030278483083 -0.030822175357 
-0.031170760835 -0.031327650203 -0.031295827321 -0.031089934279 -0.030720417779 -0.030198183782 -0.02953289873 -0.028731003258 -0.027793635246 
-0.026715044969 -0.025482431481 -0.024078360025 -0.022487029072 -0.020705010184 -0.018755704286 -0.016704673465 -0.014670391972 -0.012822105068 
-0.011354552086 -0.0104309775 -0.010097508311 -0.010213422631 -0.010505110859 -0.0093618079911 -0.0094178790071 -0.0094986066392 -0.0096220207573 
-0.0097990197807 -0.010038600399 -0.010351208935 -0.010749726308 -0.01124907703 -0.011864665755 -0.012610327679 -0.013496520706 -0.01452816689 
-0.015703146912 -0.017011860021 -0.018436538576 -0.019951468621 -0.021524575946 -0.023118278485 -0.024691928738 -0.026204697209 -0.027617714438 
-0.028896730989 -0.030014199349 -0.030949981125 -0.031691628596 -0.032233829328 -0.032577044137 -0.032725972785 -0.032685723305 -0.032470810602 
-0.032093458263 -0.031567260373 -0.030905497909 -0.030118771994 -0.029212292774 -0.028183300175 -0.027019432419 -0.025699440652 -0.024198054957 
-0.022496418475 -0.020598175155 -0.018548782069 -0.016452439853 -0.014477352135 -0.012836895668 -0.011734173543 -0.011266502958 -0.011326884993 
-0.011631249856 -0.009855712263 -0.0099073325638 -0.0099903668248 -0.010121548408 -0.010310873161 -0.010566972457 -0.01090035952 -0.011324288036 
-0.0118540269 -0.012505063478 -0.013291315646 -0.014222895313 -0.015304031778 -0.016532059466 -0.017896269337 -0.019377303888 -0.020948138257 
-0.02257459926 -0.024217161241 -0.025833860667 -0.027382521428 -0.028823701887 -0.030123462811 -0.031254690539 -0.032198116778 -0.03294239567 
-0.033483011808 -0.033821100148 -0.033962192305 -0.033912733167 -0.033685242702 -0.033293751677 -0.032754755554 -0.032085462135 -0.031301288643 
-0.030412763015 -0.029422121519 -0.028320356944 -0.027086026164 -0.025687924892 -0.024094112921 -0.022288542034 -0.020293588364 -0.018193049033 
-0.016145551504 -0.014373980309 -0.013114598646 -0.012515697699 -0.012513002989 -0.012822172163 -0.010358928054 -0.010405257985 -0.010489365138 
-0.010626699333 -0.010826384404 -0.011096590528 -0.011447699667 -0.011893004223 -0.012447657767 -0.0131271448 -0.013945247242 -0.014911671191 
-0.016030499744 -0.017298632799 -0.018704394223 -0.020227680794 -0.021840120444 -0.023505946594 -0.025184631503 -0.026833010732 -0.028408186717 
-0.029870775456 -0.031186884184 -0.032329880458 -0.03328119138 -0.03402975737 -0.034571175926 -0.03490656571 -0.035041481933 -0.034983217812 
-0.03474114369 -0.034331080119 -0.033772292503 -0.033085892889 -0.03229226551 -0.031407745724 -0.030440813552 -0.029388178496 -0.028231701131 
-0.026938456789 -0.025467226909 -0.023784253778 -0.021887872833 -0.019836998522 -0.017772933228 -0.01591839796 -0.014533946268 -0.013815082129 
-0.013746070854 -0.014053064894 -0.010862273015 -0.010902395821 -0.010986070478 -0.011127653321 -0.011335436308 -0.011616986076 -0.011982279243 
-0.012444166966 -0.013017500833 -0.013717574258 -0.014557833614 -0.01554798927 -0.016692147434 -0.017986789305 -0.019420002006 -0.020971131612 
-0.022610748476 -0.024302547693 -0.026005271611 -0.027675123973 -0.029269221598 -0.030748086322 -0.032078015438 -0.033232763688 -0.034193759525 
-0.034949730234 -0.035495667367 -0.03583173593 -0.03596268687 -0.035896703627 -0.035639476158 -0.035208404589 -0.034625390788 -0.033915153938 
-0.033102647025 -0.032209874788 -0.03125200493 -0.030232813161 -0.029140268825 -0.027943969717 -0.026598116314 -0.025054940977 -0.023289968692 
-0.021334879743 -0.019307397248 -0.017420708692 -0.015949430839 -0.015129444945 -0.01499574558 -0.015295170543 -0.011357215452 -0.011389867746 
-0.0114714413 -0.011615202243 -0.011828623579 -0.012118454154 -0.012493863099 -0.012966991372 -0.013552210211 -0.014264342726 -0.015116713838 
-0.016119208264 -0.017275865358 -0.018583288554 -0.020029653561 -0.02159387751 -0.0232464907 -0.024951155964 -0.02666632901 -0.028348434617 
-0.029954651726 -0.031445551166 -0.032787656846 -0.033954604157 -0.034927457063 -0.035694109774 -0.036248251947 -0.036588291767 -0.036717497972 
-0.036645151147 -0.036373267714 -0.035920809361 -0.035312026179 -0.034574691434 -0.033737685631 -0.032828091263 -0.031867338309 -0.030866606813 
-0.029821667347 -0.028708122442 -0.027480575059 -0.026082259226 -0.024469132371 -0.022645612393 -0.020701633489 -0.018832608029 -0.017316568849 
-0.016420569895 -0.016228827717 -0.016517335304 -0.011836289165 -0.011859727629 -0.011937187905 -0.012081043225 -0.01229753807 -0.012592264086 