# vtk DataFile Version 4.1
vtk output
ASCII
DATASET STRUCTURED_GRID
DIMENSIONS 51 51 1
POINTS 2601 float
0 0 0 0.02 0 0 0.04 0 0 
0.06 0 0 0.08 0 0 0.1 0 0 
0.12 0 0 0.14 0 0 0.16 0 0 
0.18 0 0 0.2 0 0 0.22 0 0 
0.24 0 0 0.26 0 0 0.28 0 0 
0.3 0 0 0.32 0 0 0.34 0 0 
0.36 0 0 0.38 0 0 0.4 0 0 
0.42 0 0 0.44 0 0 0.46 0 0 
0.48 0 0 0.5 0 0 0.52 0 0 
0.54 0 0 0.56 0 0 0.58 0 0 
0.6 0 0 0.62 0 0 0.64 0 0 
0.66 0 0 0.68 0 0 0.7 0 0 
0.72 0 0 0.74 0 0 0.76 0 0 
0.78 0 0 0.8 0 0 0.82 0 0 
0.84 0 0 0.86 0 0 0.88 0 0 
0.9 0 0 0.92 0 0 0.94 0 0 
0.96 0 0 0.98 0 0 1 0 0 
0 0.02 0 0.02 0.02 0 0.04 0.02 0 
0.06 0.02 0 0.08 0.02 0 0.1 0.02 0 
0.12 0.02 0 0.14 0.02 0 0.16 0.02 0 
0.18 0.02 0 0.2 0.02 0 0.22 0.02 0 
0.24 0.02 0 0.26 0.02 0 0.28 0.02 0 
0.3 0.02 0 0.32 0.02 0 0.34 0.02 0 
0.36 0.02 0 0.38 0.02 0 0.4 0.02 0 
0.42 0.02 0 0.44 0.02 0 0.46 0.02 0 
0.48 0.02 0 0.5 0.02 0 0.52 0.02 0 
0.54 0.02 0 0.56 0.02 0 0.58 0.02 0 
0.6 0.02 0 0.62 0.02 0 0.64 0.02 0 
0.66 0.02 0 0.68 0.02 0 0.7 0.02 0 
0.72 0.02 0 0.74 0.02 0 0.76 0.02 0 
0.78 0.02 0 0.8 0.02 0 0.82 0.02 0 
0.84 0.02 0 0.86 0.02 0 0.88 0.02 0 
0.9 0.02 0 0.92 0.02 0 0.94 0.02 0 
0.96 0.02 0 0.98 0.02 0 1 0.02 0 
0 0.04 0 0.02 0.04 0 0.04 0.04 0 
0.06 0.04 0 0.08 0.04 0 0.1 0.04 0 
0.12 0.04 0 0.14 0.04 0 0.16 0.04 0 
0.18 0.04 0 0.2 0.04 0 0.22 0.04 0 
0.24 0.04 0 0.26 0.04 0 0.28 0.04 0 
0.3 0.04 0 0.32 0.04 0 0.34 0.04 0 
0.36 0.04 0 0.38 0.04 0 0.4 0.04 0 
0.42 0.04 0 0.44 0.04 0 0.46 0.04 0 
0.48 0.04 0 0.5 0.04 0 0.52 0.04 0 
0.54 0.04 0 0.56 0.04 0 0.58 0.04 0 
0.6 0.04 0 0.62 0.04 0 0.64 0.04 0 
0.66 0.04 0 0.68 0.04 0 0.7 0.04 0 
0.72 0.04 0 0.74 0.04 0 0.76 0.04 0 
0.78 0.04 0 0.8 0.04 0 0.82 0.04 0 
0.84 0.04 0 0.86 0.04 0 0.88 0.04 0 
0.9 0.04 0 0.92 0.04 0 0.94 0.04 0 
0.96 0.04 0 0.98 0.04 0 1 0.04 0 
0 0.06 0 0.02 0.06 0 0.04 0.06 0 
0.06 0.06 0 0.08 0.06 0 0.1 0.06 0 
0.12 0.06 0 0.14 0.06 0 0.16 0.06 0 
0.18 0.06 0 0.2 0.06 0 0.22 0.06 0 
0.24 0.06 0 0.26 0.06 0 0.28 0.06 0 
0.3 0.06 0 0.32 0.06 0 0.34 0.06 0 
0.36 0.06 0 0.38 0.06 0 0.4 0.06 0 
0.42 0.06 0 0.44 0.06 0 0.46 0.06 0 
0.48 0.06 0 0.5 0.06 0 0.52 0.06 0 
0.54 0.06 0 0.56 0.06 0 0.58 0.06 0 
0.6 0.06 0 0.62 0.06 0 0.64 0.06 0 
0.66 0.06 0 0.68 0.06 0 0.7 0.06 0 
0.72 0.06 0 0.74 0.06 0 0.76 0.06 0 
0.78 0.06 0 0.8 0.06 0 0.82 0.06 0 
0.84 0.06 0 0.86 0.06 0 0.88 0.06 0 
0.9 0.06 0 0.92 0.06 0 0.94 0.06 0 
0.96 0.06 0 0.98 0.06 0 1 0.06 0 
0 0.08 0 0.02 0.08 0 0.04 0.08 0 
0.06 0.08 0 0.08 0.08 0 0.1 0.08 0 
0.12 0.08 0 0.14 0.08 0 0.16 0.08 0 
0.18 0.08 0 0.2 0.08 0 0.22 0.08 0 
0.24 0.08 0 0.26 0.08 0 0.28 0.08 0 
0.3 0.08 0 0.32 0.08 0 0.34 0.08 0 
0.36 0.08 0 0.38 0.08 0 0.4 0.08 0 
0.42 0.08 0 0.44 0.08 0 0.46 0.08 0 
0.48 0.08 0 0.5 0.08 0 0.52 0.08 0 
0.54 0.08 0 0.56 0.08 0 0.58 0.08 0 
0.6 0.08 0 0.62 0.08 0 0.64 0.08 0 
0.66 0.08 0 0.68 0.08 0 0.7 0.08 0 
0.72 0.08 0 0.74 0.08 0 0.76 0.08 0 
0.78 0.08 0 0.8 0.08 0 0.82 0.08 0 
0.84 0.08 0 0.86 0.08 0 0.88 0.08 0 
0.9 0.08 0 0.92 0.08 0 0.94 0.08 0 
0.96 0.08 0 0.98 0.08 0 1 0.08 0 
0 0.1 0 0.02 0.1 0 0.04 0.1 0 
0.06 0.1 0 0.08 0.1 0 0.1 0.1 0 
0.12 0.1 0 0.14 0.1 0 0.16 0.1 0 
0.18 0.1 0 0.2 0.1 0 0.22 0.1 0 
0.24 0.1 0 0.26 0.1 0 0.28 0.1 0 
0.3 0.1 0 0.32 0.1 0 0.34 0.1 0 
0.36 0.1 0 0.38 0.1 0 0.4 0.1 0 
0.42 0.1 0 0.44 0.1 0 0.46 0.1 0 
0.48 0.1 0 0.5 0.1 0 0.52 0.1 0 
0.54 0.1 0 0.56 0.1 0 0.58 0.1 0 
0.6 0.1 0 0.62 0.1 0 0.64 0.1 0 
0.66 0.1 0 0.68 0.1 0 0.7 0.1 0 
0.72 0.1 0 0.74 0.1 0 0.76 0.1 0 
0.78 0.1 0 0.8 0.1 0 0.82 0.1 0 
0.84 0.1 0 0.86 0.1 0 0.88 0.1 0 
0.9 0.1 0 0.92 0.1 0 0.94 0.1 0 
0.96 0.1 0 0.98 0.1 0 1 0.1 0 
0 0.12 0 0.02 0.12 0 0.04 0.12 0 
0.06 0.12 0 0.08 0.12 0 0.1 0.12 0 
0.12 0.12 0 0.14 0.12 0 0.16 0.12 0 
0.18 0.12 0 0.2 0.12 0 0.22 0.12 0 
0.24 0.12 0 0.26 0.12 0 0.28 0.12 0 
0.3 0.12 0 0.32 0.12 0 0.34 0.12 0 
0.36 0.12 0 0.38 0.12 0 0.4 0.12 0 
0.42 0.12 0 0.44 0.12 0 0.46 0.12 0 
0.48 0.12 0 0.5 0.12 0 0.52 0.12 0 
0.54 0.12 0 0.56 0.12 0 0.58 0.12 0 
0.6 0.12 0 0.62 0.12 0 0.64 0.12 0 
0.66 0.12 0 0.68 0.12 0 0.7 0.12 0 
0.72 0.12 0 0.74 0.12 0 0.76 0.12 0 
0.78 0.12 0 0.8 0.12 0 0.82 0.12 0 
0.84 0.12 0 0.86 0.12 0 0.88 0.12 0 
0.9 0.12 0 0.92 0.12 0 0.94 0.12 0 
0.96 0.12 0 0.98 0.12 0 1 0.12 0 
0 0.14 0 0.02 0.14 0 0.04 0.14 0 
0.06 0.14 0 0.08 0.14 0 0.1 0.14 0 
0.12 0.14 0 0.14 0.14 0 0.16 0.14 0 
0.18 0.14 0 0.2 0.14 0 0.22 0.14 0 
0.24 0.14 0 0.26 0.14 0 0.28 0.14 0 
0.3 0.14 0 0.32 0.14 0 0.34 0.14 0 
0.36 0.14 0 0.38 0.14 0 0.4 0.14 0 
0.42 0.14 0 0.44 0.14 0 0.46 0.14 0 
0.48 0.14 0 0.5 0.14 0 0.52 0.14 0 
0.54 0.14 0 0.56 0.14 0 0.58 0.14 0 
0.6 0.14 0 0.62 0.14 0 0.64 0.14 0 
0.66 0.14 0 0.68 0.14 0 0.7 0.14 0 
0.72 0.14 0 0.74 0.14 0 0.76 0.14 0 
0.78 0.14 0 0.8 0.14 0 0.82 0.14 0 
0.84 0.14 0 0.86 0.14 0 0.88 0.14 0 
0.9 0.14 0 0.92 0.14 0 0.94 0.14 0 
0.96 0.14 0 0.98 0.14 0 1 0.14 0 
0 0.16 0 0.02 0.16 0 0.04 0.16 0 
0.06 0.16 0 0.08 0.16 0 0.1 0.16 0 
0.12 0.16 0 0.14 0.16 0 0.16 0.16 0 
0.18 0.16 0 0.2 0.16 0 0.22 0.16 0 
0.24 0.16 0 0.26 0.16 0 0.28 0.16 0 
0.3 0.16 0 0.32 0.16 0 0.34 0.16 0 
0.36 0.16 0 0.38 0.16 0 0.4 0.16 0 
0.42 0.16 0 0.44 0.16 0 0.46 0.16 0 
0.48 0.16 0 0.5 0.16 0 0.52 0.16 0 
0.54 0.16 0 0.56 0.16 0 0.58 0.16 0 
0.6 0.16 0 0.62 0.16 0 0.64 0.16 0 
0.66 0.16 0 0.68 0.16 0 0.7 0.16 0 
0.72 0.16 0 0.74 0.16 0 0.76 0.16 0 
0.78 0.16 0 0.8 0.16 0 0.82 0.16 0 
0.84 0.16 0 0.86 0.16 0 0.88 0.16 0 
0.9 0.16 0 0.92 0.16 0 0.94 0.16 0 
0.96 0.16 0 0.98 0.16 0 1 0.16 0 
0 0.18 0 0.02 0.18 0 0.04 0.18 0 
0.06 0.18 0 0.08 0.18 0 0.1 0.18 0 
0.12 0.18 0 0.14 0.18 0 0.16 0.18 0 
0.18 0.18 0 0.2 0.18 0 0.22 0.18 0 
0.24 0.18 0 0.26 0.18 0 0.28 0.18 0 
0.3 0.18 0 0.32 0.18 0 0.34 0.18 0 
0.36 0.18 0 0.38 0.18 0 0.4 0.18 0 
0.42 0.18 0 0.44 0.18 0 0.46 0.18 0 
0.48 0.18 0 0.5 0.18 0 0.52 0.18 0 
0.54 0.18 0 0.56 0.18 0 0.58 0.18 0 
0.6 0.18 0 0.62 0.18 0 0.64 0.18 0 
0.66 0.18 0 0.68 0.18 0 0.7 0.18 0 
0.72 0.18 0 0.74 0.18 0 0.76 0.18 0 
0.78 0.18 0 0.8 0.18 0 0.82 0.18 0 
0.84 0.18 0 0.86 0.18 0 0.88 0.18 0 
0.9 0.18 0 0.92 0.18 0 0.94 0.18 0 
0.96 0.18 0 0.98 0.18 0 1 0.18 0 
0 0.2 0 0.02 0.2 0 0.04 0.2 0 
0.06 0.2 0 0.08 0.2 0 0.1 0.2 0 
0.12 0.2 0 0.14 0.2 0 0.16 0.2 0 
0.18 0.2 0 0.2 0.2 0 0.22 0.2 0 
0.24 0.2 0 0.26 0.2 0 0.28 0.2 0 
0.3 0.2 0 0.32 0.2 0 0.34 0.2 0 
0.36 0.2 0 0.38 0.2 0 0.4 0.2 0 
0.42 0.2 0 0.44 0.2 0 0.46 0.2 0 
0.48 0.2 0 0.5 0.2 0 0.52 0.2 0 
0.54 0.2 0 0.56 0.2 0 0.58 0.2 0 
0.6 0.2 0 0.62 0.2 0 0.64 0.2 0 
0.66 0.2 0 0.68 0.2 0 0.7 0.2 0 
0.72 0.2 0 0.74 0.2 0 0.76 0.2 0 
0.78 0.2 0 0.8 0.2 0 0.82 0.2 0 
0.84 0.2 0 0.86 0.2 0 0.88 0.2 0 
0.9 0.2 0 0.92 0.2 0 0.94 0.2 0 
0.96 0.2 0 0.98 0.2 0 1 0.2 0 
0 0.22 0 0.02 0.22 0 0.04 0.22 0 
0.06 0.22 0 0.08 0.22 0 0.1 0.22 0 
0.12 0.22 0 0.14 0.22 0 0.16 0.22 0 
0.18 0.22 0 0.2 0.22 0 0.22 0.22 0 
0.24 0.22 0 0.26 0.22 0 0.28 0.22 0 
0.3 0.22 0 0.32 0.22 0 0.34 0.22 0 
0.36 0.22 0 0.38 0.22 0 0.4 0.22 0 
0.42 0.22 0 0.44 0.22 0 0.46 0.22 0 
0.48 0.22 0 0.5 0.22 0 0.52 0.22 0 
0.54 0.22 0 0.56 0.22 0 0.58 0.22 0 
0.6 0.22 0 0.62 0.22 0 0.64 0.22 0 
0.66 0.22 0 0.68 0.22 0 0.7 0.22 0 
0.72 0.22 0 0.74 0.22 0 0.76 0.22 0 
0.78 0.22 0 0.8 0.22 0 0.82 0.22 0 
0.84 0.22 0 0.86 0.22 0 0.88 0.22 0 
0.9 0.22 0 0.92 0.22 0 0.94 0.22 0 
0.96 0.22 0 0.98 0.22 0 1 0.22 0 
0 0.24 0 0.02 0.24 0 0.04 0.24 0 
0.06 0.24 0 0.08 0.24 0 0.1 0.24 0 
0.12 0.24 0 0.14 0.24 0 0.16 0.24 0 
0.18 0.24 0 0.2 0.24 0 0.22 0.24 0 
0.24 0.24 0 0.26 0.24 0 0.28 0.24 0 
0.3 0.24 0 0.32 0.24 0 0.34 0.24 0 
0.36 0.24 0 0.38 0.24 0 0.4 0.24 0 
0.42 0.24 0 0.44 0.24 0 0.46 0.24 0 
0.48 0.24 0 0.5 0.24 0 0.52 0.24 0 
0.54 0.24 0 0.56 0.24 0 0.58 0.24 0 
0.6 0.24 0 0.62 0.24 0 0.64 0.24 0 
0.66 0.24 0 0.68 0.24 0 0.7 0.24 0 
0.72 0.24 0 0.74 0.24 0 0.76 0.24 0 
0.78 0.24 0 0.8 0.24 0 0.82 0.24 0 
0.84 0.24 0 0.86 0.24 0 0.88 0.24 0 
0.9 0.24 0 0.92 0.24 0 0.94 0.24 0 
0.96 0.24 0 0.98 0.24 0 1 0.24 0 
0 0.26 0 0.02 0.26 0 0.04 0.26 0 
0.06 0.26 0 0.08 0.26 0 0.1 0.26 0 
0.12 0.26 0 0.14 0.26 0 0.16 0.26 0 
0.18 0.26 0 0.2 0.26 0 0.22 0.26 0 
0.24 0.26 0 0.26 0.26 0 0.28 0.26 0 
0.3 0.26 0 0.32 0.26 0 0.34 0.26 0 
0.36 0.26 0 0.38 0.26 0 0.4 0.26 0 
0.42 0.26 0 0.44 0.26 0 0.46 0.26 0 
0.48 0.26 0 0.5 0.26 0 0.52 0.26 0 
0.54 0.26 0 0.56 0.26 0 0.58 0.26 0 
0.6 0.26 0 0.62 0.26 0 0.64 0.26 0 
0.66 0.26 0 0.68 0.26 0 0.7 0.26 0 
0.72 0.26 0 0.74 0.26 0 0.76 0.26 0 
0.78 0.26 0 0.8 0.26 0 0.82 0.26 0 
0.84 0.26 0 0.86 0.26 0 0.88 0.26 0 
0.9 0.26 0 0.92 0.26 0 0.94 0.26 0 
0.96 0.26 0 0.98 0.26 0 1 0.26 0 
0 0.28 0 0.02 0.28 0 0.04 0.28 0 
0.06 0.28 0 0.08 0.28 0 0.1 0.28 0 
0.12 0.28 0 0.14 0.28 0 0.16 0.28 0 
0.18 0.28 0 0.2 0.28 0 0.22 0.28 0 
0.24 0.28 0 0.26 0.28 0 0.28 0.28 0 
0.3 0.28 0 0.32 0.28 0 0.34 0.28 0 
0.36 0.28 0 0.38 0.28 0 0.4 0.28 0 
0.42 0.28 0 0.44 0.28 0 0.46 0.28 0 
0.48 0.28 0 0.5 0.28 0 0.52 0.28 0 
0.54 0.28 0 0.56 0.28 0 0.58 0.28 0 
0.6 0.28 0 0.62 0.28 0 0.64 0.28 0 
0.66 0.28 0 0.68 0.28 0 0.7 0.28 0 
0.72 0.28 0 0.74 0.28 0 0.76 0.28 0 
0.78 0.28 0 0.8 0.28 0 0.82 0.28 0 
0.84 0.28 0 0.86 0.28 0 0.88 0.28 0 
0.9 0.28 0 0.92 0.28 0 0.94 0.28 0 
0.96 0.28 0 0.98 0.28 0 1 0.28 0 
0 0.3 0 0.02 0.3 0 0.04 0.3 0 
0.06 0.3 0 0.08 0.3 0 0.1 0.3 0 
0.12 0.3 0 0.14 0.3 0 0.16 0.3 0 
0.18 0.3 0 0.2 0.3 0 0.22 0.3 0 
0.24 0.3 0 0.26 0.3 0 0.28 0.3 0 
0.3 0.3 0 0.32 0.3 0 0.34 0.3 0 
0.36 0.3 0 0.38 0.3 0 0.4 0.3 0 
0.42 0.3 0 0.44 0.3 0 0.46 0.3 0 
0.48 0.3 0 0.5 0.3 0 0.52 0.3 0 
0.54 0.3 0 0.56 0.3 0 0.58 0.3 0 
0.6 0.3 0 0.62 0.3 0 0.64 0.3 0 
0.66 0.3 0 0.68 0.3 0 0.7 0.3 0 
0.72 0.3 0 0.74 0.3 0 0.76 0.3 0 
0.78 0.3 0 0.8 0.3 0 0.82 0.3 0 
0.84 0.3 0 0.86 0.3 0 0.88 0.3 0 
0.9 0.3 0 0.92 0.3 0 0.94 0.3 0 
0.96 0.3 0 0.98 0.3 0 1 0.3 0 
0 0.32 0 0.02 0.32 0 0.04 0.32 0 
0.06 0.32 0 0.08 0.32 0 0.1 0.32 0 
0.12 0.32 0 0.14 0.32 0 0.16 0.32 0 
0.18 0.32 0 0.2 0.32 0 0.22 0.32 0 
0.24 0.32 0 0.26 0.32 0 0.28 0.32 0 
0.3 0.32 0 0.32 0.32 0 0.34 0.32 0 
0.36 0.32 0 0.38 0.32 0 0.4 0.32 0 
0.42 0.32 0 0.44 0.32 0 0.46 0.32 0 
0.48 0.32 0 0.5 0.32 0 0.52 0.32 0 
0.54 0.32 0 0.56 0.32 0 0.58 0.32 0 
[...]
CELL_DATA 2500
FIELD FieldData 2
pressure 1 2500 double
-0.0057010168474 -0.0056963931211 -0.0057260725969 -0.0057923729325 -0.005888365572 -0.0060065413126 -0.0061431201786 -0.0062978307345 -0.0064729833643 
-0.0066709960582 -0.0068949797456 -0.007145776285 -0.0074218799541 -0.0077227492234 -0.0080436801789 -0.0083785518365 -0.0087183540375 -0.0090509899666 
-0.0093614738617 -0.0096324884797 -0.0098451832238 -0.0099800759495 -0.010017965658 -0.0099408389927 -0.0097328071509 -0.0093811164544 -0.0088772747306 
-0.0082183211016 -0.0074083010607 -0.0064600012015 -0.0053990682321 -0.0042839009609 -0.0031563686289 -0.0020703653188 -0.0010870033459 -0.00026969400487 
0.0003226041306 0.00064401349562 0.00067151044875 0.00041432908425 -5.3733286903e-05 -0.00065293289325 -0.0012880582056 -0.0018667335052 -0.0023260074334 
-0.0026515243448 -0.0028542004798 -0.0029534730563 -0.0029699440075 -0.0029306722018 -0.005717777676 -0.0057128650478 -0.0057412621653 -0.0058018154978 
-0.0058893225244 -0.0059979954877 -0.0061249474308 -0.0062692909572 -0.0064334844744 -0.0066179695216 -0.0068277372876 -0.0070642518846 -0.0073269320323 
-0.0076154494963 -0.0079267446899 -0.0082551373047 -0.0085919050601 -0.0089252126214 -0.0092403710445 -0.0095203517854 -0.0097464602878 -0.0098991099136 
-0.0099586861931 -0.0099064925199 -0.0097257758472 -0.0094028344917 -0.0089281656013 -0.0082975918283 -0.0075132738221 -0.0065849891333 -0.005574876276 
-0.004495940023 -0.0033989033945 -0.0023394258742 -0.00137838036 -0.00057816151535 3.6663790983e-06 0.00032290017986 0.00035871187615 0.00012377759331 
-0.00032852332268 -0.00087325238101 -0.0014522725903 -0.0019744951531 -0.0023796499151 -0.0026595813815 -0.0028305495191 -0.0029154034475 -0.0029333131355 
-0.0028930267527 -0.0057029194746 -0.0056950898822 -0.0057237622497 -0.0057846696703 -0.0058705446499 -0.0059739277406 -0.0060934543257 -0.0062250950507 
-0.0063762278543 -0.006548685242 -0.006747023317 -0.0069748424431 -0.0072339795678 -0.007524555338 -0.0078439991629 -0.0081866161236 -0.0085434241433 
-0.0089022354067 -0.0092479338063 -0.0095628980916 -0.0098275918318 -0.010021341647 -0.010123274355 -0.010113388035 -0.0099737161401 -0.0096895045622 
-0.0092502844715 -0.0086506063238 -0.0078895084957 -0.0070143839856 -0.0060311203982 -0.0049740639996 -0.0038913324161 -0.0028382321563 -0.0018753083445 
-0.0010645662334 -0.00046341600697 -0.00011640556808 -4.5306083569e-05 -0.00023892098998 -0.00064543811977 -0.0011722113383 -0.0017119871794 -0.0022019756647 
-0.0025678419869 -0.0027968525957 -0.0029246022587 -0.0029791402881 -0.0029812922887 -0.0029316865809 -0.0056439604464 -0.0056396933077 -0.0056748677664 
-0.0057421725468 -0.0058313215258 -0.005932710133 -0.0060455699927 -0.0061693277961 -0.0063117328917 -0.0064790945714 -0.0066780085757 -0.0069139225192 
-0.007189946425 -0.0075063929264 -0.0078602770715 -0.0082450867317 -0.0086507714607 -0.0090638893953 -0.0094678695339 -0.0098434626974 -0.010169427182 
-0.010423435653 -0.010583165033 -0.010627524403 -0.010537892319 -0.010299290195 -0.0099014591319 -0.0093399681181 -0.0086212420722 -0.0077819147654 
-0.0068230470122 -0.0057822039392 -0.0047053972515 -0.0036461975583 -0.0026636874733 -0.0018188214155 -0.0011687551444 -0.00075908588806 -0.00061447427249 
-0.00072906136095 -0.0010596106067 -0.0015263440285 -0.002027423564 -0.0024808011169 -0.0028275506836 -0.0030224694937 -0.0031125380578 -0.003136204243 
-0.0031205504474 -0.0030692566246 -0.0055365718554 -0.0055446077791 -0.005593205696 -0.0056708963575 -0.0057657147307 -0.0058698544515 -0.0059817992498 
-0.0061067157802 -0.0062540527962 -0.0064338552597 -0.0066551007468 -0.0069243504781 -0.0072449059244 -0.0076162982629 -0.008034165759 -0.0084902362226 
-0.0089724581292 -0.0094651980763 -0.0099496327248 -0.010404367792 -0.010806293364 -0.011131663089 -0.011357330236 -0.011461999011 -0.011427404655 
-0.01123936266 -0.010888625399 -0.010371352299 -0.0097083369082 -0.008899036644 -0.0079647401934 -0.0069385806966 -0.0058630708531 -0.0047886192399 
-0.0037715121887 -0.0028706076972 -0.0021422535847 -0.0016332960794 -0.0013725748829 -0.0013621899685 -0.0015711240175 -0.0019351209279 -0.0023666140712 
-0.0027747990103 -0.003080292571 -0.0032745369008 -0.003346416125 -0.0033545252434 -0.0033314091073 -0.0032881010678 -0.0053814967662 -0.005410154899 
-0.0054759251363 -0.0055663359245 -0.0056723110841 -0.0057850503758 -0.0059078932143 -0.0060500115062 -0.006223689145 -0.0064412536046 -0.0067127420732 
-0.0070446461165 -0.0074391707753 -0.0078941115186 -0.0084028825797 -0.0089547324889 -0.009534939947 -0.01012523128 -0.010704366845 -0.011248969931 
-0.01173456966 -0.012136812642 -0.012432675277 -0.012601609479 -0.012626571802 -0.012494937936 -0.012199345665 -0.011738606626 -0.011125135186 
-0.010354563085 -0.0094491084884 -0.0084390553885 -0.0073629814171 -0.0062670651354 -0.0052035711803 -0.0042281507419 -0.0033955838583 -0.0027537998401 
-0.0023364808724 -0.002155261306 -0.0021935304638 -0.002404661571 -0.0027172794125 -0.0030481438507 -0.003321133716 -0.0034958880362 -0.0035803592895 
-0.003598855455 -0.0035850723719 -0.0035577927135 -0.005185549553 -0.0052411091 -0.0053268541993 -0.0054337934642 -0.0055542140585 -0.0056866368678 
-0.0058376412681 -0.0060192538715 -0.0062454894772 -0.0065291820848 -0.0068798750355 -0.007302604736 -0.0077975686598 -0.008360085624 -0.0089808738165 
-0.0096462690373 -0.010338721794 -0.011037384301 -0.011718960894 -0.012358720038 -0.012931677376 -0.01341374408 -0.013782803227 -0.014019655769 
-0.014108858547 -0.014039495702 -0.01380601395 -0.013409257262 -0.01284840011 -0.012122308139 -0.011250622038 -0.010259981124 -0.0091843208844 
-0.0080646410568 -0.0069480713256 -0.0058859324455 -0.0049304729075 -0.0041301008637 -0.0035232680911 -0.0031317050952 -0.0029544166508 -0.0029644667471 
-0.0031106383211 -0.0033255049199 -0.0035409427744 -0.0037107490832 -0.0038129459443 -0.0038506827827 -0.0038619246335 -0.0038560202494 -0.0049660231919 
-0.005052481262 -0.005157062647 -0.005282534658 -0.0054273328239 -0.0055948605993 -0.0057946392754 -0.006040096867 -0.0063451788487 -0.0067215993768 
-0.0071769708381 -0.0077139978743 -0.0083301964595 -0.0090180759937 -0.0097653300081 -0.010555388729 -0.011368022124 -0.012180260696 -0.012967384857 
-0.013704121691 -0.014365736981 -0.014929042908 -0.015373256387 -0.015680736412 -0.015837627899 -0.015834524891 -0.015667220977 -0.015337641099 
-0.014833483075 -0.014156727446 -0.013324001597 -0.012357778927 -0.011286751485 -0.010145950502 -0.0089763835049 -0.007823914812 -0.0067370975758 
-0.0057637395333 -0.0049462107511 -0.0043158840393 -0.0038875919501 -0.0036554593106 -0.003591687377 -0.0036497935476 -0.0037733872176 -0.0039097405698 
-0.0040218687302 -0.0041104364351 -0.0041584034395 -0.0041764954539 -0.0047502824835 -0.0048651868743 -0.0049895422879 -0.0051392612242 -0.0053201219105 
-0.0055394091418 -0.0058082070957 -0.0061395793439 -0.0065458583179 -0.0070363256331 -0.0076158412913 -0.0082841623583 -0.009035825587 -0.0098602050589 
-0.010741999495 -0.011661844537 -0.012597289231 -0.013523786201 -0.014415954411 -0.0152486279 -0.015997848142 -0.016641652678 -0.017160743039 
-0.017539014962 -0.017764074782 -0.017827782552 -0.017726881442 -0.017463737869 -0.017018451559 -0.016394715588 -0.015606167172 -0.014670914851 
-0.01361204743 -0.012458061605 -0.011243035985 -0.010006316396 -0.0087914484303 -0.0076441252063 -0.00660903877 -0.0057257439483 -0.0050239567272 
-0.0045190201166 -0.0042085052364 -0.0040710240516 -0.0040683949523 -0.0041523933017 -0.0042772171412 -0.0044016871185 -0.0044850832147 -0.0045275299337 
-0.0045729295301 -0.0047120721423 -0.0048582562829 -0.0050392574959 -0.0052677120898 -0.0055535720286 -0.0059078651094 -0.0063419333267 -0.0068653817355 
-0.0074843627508 -0.0082004789268 -0.0090102396191 -0.0099048549573 -0.010870511091 -0.01188893725 -0.01293835882 -0.013994512434 -0.015031981723 
-0.016025238425 -0.016949679105 -0.017782376738 -0.01850273692 -0.019092955443 -0.019538434739 -0.019828188542 -0.019955244858 -0.019917085455 
-0.019716171565 -0.019329252216 -0.018760660434 -0.018021142376 -0.017124466071 -0.016088029814 -0.014933529816 -0.013687574734 -0.012382074667 
-0.011054205963 -0.0097457289218 -0.0085014532884 -0.0073667324313 -0.0063840069532 -0.0055885571256 -0.0050037355477 -0.0046360785558 -0.0044709780965 
-0.0044705102601 -0.0045768808994 -0.0047230205172 -0.0048544281278 -0.0049242811904 -0.0044728517774 -0.0046325107589 -0.0048015874932 -0.0050199004503 
-0.0053050735755 -0.0056680496344 -0.0061186010373 -0.006665452408 -0.0073149596367 -0.0080698070639 -0.0089280757361 -0.009882689259 -0.010921372249 
-0.012027073011 -0.013178803801 -0.014352662106 -0.015523202185 -0.016664518028 -0.017751348684 -0.01875983511 -0.019668239004 -0.020457361325 
-0.021110939919 -0.021615979878 -0.021962988046 -0.022146188061 -0.022163750055 -0.022018037245 -0.021686454256 -0.021173375683 -0.020486849304 
-0.019636552087 -0.018634418244 -0.017495424053 -0.016238491727 -0.014887435369 -0.013471823512 -0.012027568735 -0.010596997941 -0.0092281278368 
-0.0079728384653 -0.0068835782544 -0.0060081522914 -0.0053821432461 -0.0050188812597 -0.0048984792544 -0.0049618568364 -0.0051212138892 -0.0052915318479 
-0.0053878269704 -0.004485728589 -0.0046610808195 -0.0048539986703 -0.0051137721734 -0.0054609785838 -0.0059063624026 -0.0064577014663 -0.0071207817135 
-0.0078985574515 -0.0087900843456 -0.009789644554 -0.010886361648 -0.012064385283 -0.013303552872 -0.014580352053 -0.0158692794 -0.01714399057 
-0.018378455626 -0.019547785502 -0.020629047726 -0.021601696704 -0.022448040004 -0.023153543094 -0.023706987389 -0.024100549048 -0.024329793152 
-0.024393610334 -0.024294214014 -0.024012846848 -0.023553826083 -0.022922807014 -0.022125848032 -0.021169948195 -0.020063805725 -0.018818842838 
-0.017450513269 -0.015979853021 -0.014435154338 -0.012853542414 -0.011282097342 -0.0097779728744 -0.0084066934361 -0.0072374995694 -0.0063343734091 
-0.0057416822438 -0.0054653179085 -0.0054560073223 -0.0056119051673 -0.0058109880529 -0.0059344414759 -0.0046375549092 -0.004824208918 -0.0050411566043 
-0.0053438944992 -0.0057543386672 -0.0062822799641 -0.0069333325653 -0.0077103569887 -0.0086129055576 -0.0096362318742 -0.010770626895 -0.012001329925 
-0.0133089778 -0.014670439854 -0.016060118309 -0.017451148552 -0.018816583199 -0.020130329542 -0.021368058951 -0.022507726634 -0.023530148511 
-0.024419338342 -0.02516270165 -0.025751040676 -0.026178418264 -0.026441885862 -0.026541184089 -0.026478427373 -0.026240731902 -0.025832596332 
-0.025257694179 -0.024519125859 -0.023619755366 -0.022562814051 -0.021352870379 -0.019997260431 -0.018508051927 -0.016904541368 -0.015216142176 
-0.013485301118 -0.011769761401 -0.010143015177 -0.0086912059635 -0.0075041907366 -0.0066584946788 -0.0061917331383 -0.0060742830283 -0.0061978430737 
-0.0064070085264 -0.0065731562704 -0.0049433839122 -0.0051372819608 -0.0053771349278 -0.005721624894 -0.0061927833979 -0.0067992243095 -0.007544490956 
-0.0084286817095 -0.0094478919125 -0.010593462758 -0.011851657845 -0.013203903207 -0.014627460644 -0.016096630888 -0.017583969959 -0.01906149042 
-0.020501701226 -0.021878613197 -0.023168407735 -0.024350121281 -0.025406110347 -0.026322340878 -0.027088382513 -0.027697276112 -0.028145133869 
-0.028430657063 -0.028554544937 -0.028518995875 -0.028317800062 -0.027955930768 -0.027435573436 -0.026757656513 -0.025921936508 -0.024927336243 
-0.02377266971 -0.022457950778 -0.020986477624 -0.019367819667 -0.017621704571 -0.015782542609 -0.013903893162 -0.012061503782 -0.010352688613 
-0.0088888833105 -0.0077777971834 -0.0070930302168 -0.0068352822996 -0.0069054822884 -0.0071304122497 -0.0073272557776 -0.0054064625478 -0.0056036309224 
-0.0058638819718 -0.0062465707694 -0.0067731416161 -0.0074510095632 -0.0082818822847 -0.0092631270704 -0.010387373449 -0.011642080477 -0.013009617235 
-0.014467774202 -0.015990848857 -0.017550854296 -0.019118727408 -0.02066543467 -0.022163098085 -0.023585803971 -0.024910421987 -0.026117259121 
-0.027190467023 -0.028118128782 -0.028892201581 -0.029508062526 -0.029963975869 -0.030260326807 -0.03039894194 -0.030382285382 -0.03021054753 
-0.029889260915 -0.029419657201 -0.028801364925 -0.02803220124 -0.027108162162 -0.02602378502 -0.024773118824 -0.023351604188 -0.021759157551 
-0.020004658236 -0.01811175701 -0.016125424416 -0.014117821792 -0.012190921104 -0.010471948718 -0.0090967220394 -0.0081767076316 -0.0077512312614 
-0.0077428972716 -0.0079650238046 -0.0081964907521 -0.0060188590319 -0.006215303004 -0.00649230522 -0.0069080670743 -0.0074829948968 -0.0082234157458 
-0.0091292310983 -0.010195129921 -0.011410348875 -0.012758680424 -0.014218840964 -0.015765442071 -0.017370179876 -0.019003041917 -0.020633456007 
-0.022231535753 -0.02376900771 -0.025220207346 -0.026562913277 -0.027778936843 -0.028854371152 -0.029779638033 -0.03054909008 -0.03116049126 
-0.031614156607 -0.031912208819 -0.032057569654 -0.032053166983 -0.031904538452 -0.031617519826 -0.031192963052 -0.030630031173 -0.02992575474 
-0.029074688588 -0.028068822876 -0.026898041978 -0.025551512906 -0.024020459352 -0.022302760936 -0.020409581524 -0.018373691771 -0.016258192296 
-0.014162915835 -0.012223964441 -0.010600142553 -0.0094398330343 -0.008826280308 -0.0087153209514 -0.0089181045173 -0.0091812543479 -0.0067632292696 
-0.0069549930304 -0.0072444601094 -0.0076873663661 -0.0083028209422 -0.0090959534804 -0.010064868079 -0.011201630282 -0.012492358079 -0.013917470503 
-0.015452548536 -0.017069488115 -0.018737713763 -0.020425358834 -0.022100598233 -0.023732704179 -0.025293218412 -0.026756950327 -0.028102829723 
-0.02931432139 -0.030379660943 -0.031291584449 -0.03204685424 -0.032645400195 -0.03308954733 -0.033382880989 -0.033529400704 -0.033532456578 
-0.033401574424 -0.033142398969 -0.032755851022 -0.032241346927 -0.031596166477 -0.030814811823 -0.029888499025 -0.028805005687 -0.027549332819 
-0.026105789263 -0.024462184831 -0.02261668913 -0.020587425717 -0.018423820993 -0.016217036315 -0.014104519585 -0.012261244574 -0.010868836965 
-0.010056631624 -0.0098233277034 -0.0099908215124 -0.010278356082 -0.0076152504288 -0.0077986249106 -0.0080961104012 -0.0085601131659 -0.0092080671922 
-0.010043731772 -0.011063363307 -0.012256656296 -0.013606914711 -0.015091745258 -0.016684137799 -0.018353692556 -0.020067813103 -0.021793093862 
-0.023496527747 -0.025146797116 -0.026715476203 -0.028178144669 -0.029515003609 -0.030711386831 -0.031757648154 -0.032648819857 -0.033383815268 
-0.033964627371 -0.034395138895 -0.034680246301 -0.034824820029 -0.034832048791 -0.03471478457 -0.034477352665 -0.034121208924 -0.033646542251 
-0.033051651643 -0.032332153128 -0.031480069535 -0.030483096704 -0.029324441557 -0.027983906303 -0.026441159932 -0.02468218282 -0.02270945916 
-0.020555438921 -0.018296900386 -0.016065077964 -0.014043138814 -0.012439943329 -0.011429994892 -0.011061927806 -0.011182130058 -0.011492180946 
-0.0085462903727 -0.0087180187945 -0.0090192940667 -0.0094985492364 -0.010171133847 -0.011039188073 -0.012097228495 -0.013332834699 -0.014727036289 
-0.016255211967 -0.017888271175 -0.019593837002 -0.021337662695 -0.02308497552 -0.024801846001 -0.026456621425 -0.028021246796 -0.029472164413 
-0.030791108052 -0.031965233491 -0.032987002863 -0.033853496067 -0.034565636889 -0.035126972269 -0.035542668685 -0.035818432297 -0.035959821589 
-0.035969963894 -0.0358629831 -0.035641844301 -0.035308676499 -0.034864733719 -0.03430982979 -0.033641435509 -0.032853584728 -0.03193563654 
-0.030871293082 -0.029638553396 -0.028211678546 -0.026566536067 -0.024690559843 -0.022597547095 -0.02034548331 -0.018052399538 -0.015901152518 
-0.014119979275 -0.012924576297 -0.012416956812 -0.012479284876 -0.012802898135 -0.0095259540774 -0.0096833318124 -0.0099844747399 -0.010473440606 
-0.011163086651 -0.012053790757 -0.013138441888 -0.014402920266 -0.015826554867 -0.017383051627 -0.019041608389 -0.020768290911 -0.022527475536 
-0.024283282788 -0.026001193834 -0.02764955907 -0.029200815527 -0.030632539194 -0.031927937342 -0.033076015467 -0.034071092397 -0.03491216619 
-0.0356016912 -0.03614443717 -0.036546309672 -0.036813461725 -0.036951586378 -0.036965086003 -0.036865589311 -0.036656062177 -0.036339242341 
-0.035917466978 -0.035392176462 -0.034763089396 -0.034026933331 -0.033175938307 -0.032196231425 -0.031066678545 -0.029759296497 -0.028242933809 
-0.026492078655 -0.024501953088 -0.022308988187 -0.020012151453 -0.017785639891 -0.015868005185 -0.014509439044 -0.013865079871 -0.013861837404 
-0.014190757796 -0.01052428801 -0.010664989046 -0.010962245138 -0.011455638759 -0.012155223691 -0.013059485552 -0.014159869361 -0.015441030563 
-0.016881118503 -0.018452570919 -0.020123304755 -0.021858185264 -0.023620496267 -0.025373644635 -0.027082863888 -0.028716700205 -0.030248314926 
-0.031656401132 -0.032925672316 -0.034046725015 -0.035015650526 -0.035832916747 -0.036502176667 -0.037028953122 -0.03741950555 -0.037679984239 
-0.037815853877 -0.037832701589 -0.037738761266 -0.03753724623 -0.037231364511 -0.036824429482 -0.036319464224 -0.035718357115 -0.035020754514 
-0.034222428377 -0.033313268368 -0.032275258174 -0.031081358512 -0.029697066598 -0.028087198803 -0.026230159979 -0.024139952185 -0.021892253977 
-0.019645110603 -0.017637878986 -0.01614648861 -0.015375574435 -0.015302812605 -0.015629653341 -0.011513622714 -0.01163489497 -0.011924528324 
-0.012417353943 -0.013120326148 -0.014029920608 -0.015136382721 -0.016423547724 -0.01786877922 -0.019443639282 -0.021115181668 -0.022847386433 
-0.02460285776 -0.02634467988 -0.028038088497 -0.029652028481 -0.031160441329 -0.032543139198 -0.033786112384 -0.034881481414 -0.035826690127 
-0.03662336797 -0.037275946757 -0.037790320453 -0.038172733447 -0.038428929433 -0.038563907683 -0.038583692006 -0.038494050579 -0.038297908895 
-0.037998855428 -0.037601010195 -0.03710863922 -0.03652561881 -0.035854346927 -0.03509425951 -0.034239745807 -0.033277519407 -0.032184149345 
-0.03092544386 -0.029460571105 -0.027754317064 -0.025799304334 -0.023645685971 -0.021429327931 -0.019381223488 -0.017793023117 -0.016912346308 
-0.016770295397 -0.017089005966 -0.012470500735 -0.012566364408 -0.012845354564 -0.013333121334 -0.014033660598 -0.014941406181 -0.016045638933 
-0.017329658415 -0.018770362486 -0.020338869354 -0.022001707083 -0.023722386182 -0.025463284835 -0.027187450321 -0.028860347348 -0.030451430506 
-0.031935419755 -0.033293060271 -0.03451153033 -0.035584115603 -0.036509288162 -0.037289453743 -0.037929470577 -0.038435263461 -0.03881268109 
-0.039067000157 -0.039202678914 -0.03922396116 -0.039138167558 -0.038945664827 -0.038650476804 -0.038257303745 -0.037771498958 -0.037198496452 
-0.036543109942 -0.035808249672 -0.034992903734 -0.034089284342 -0.033079433696 -0.031932654413 -0.030606658283 -0.029056864001 -0.027257326235 
-0.025232519725 -0.023091986216 -0.021050245311 -0.019404268241 -0.018435956489 -0.018229088683 -0.018535331618 -0.013369592416 -0.013442609037 
-0.013701845771 -0.014180653836 -0.014873810883 -0.015773596353 -0.016868570065 -0.018141643305 -0.019569636832 -0.021123583208 -0.022769891085 
-0.024472087647 -0.026192665191 -0.027894909033 -0.029544659333 -0.031111930654 -0.032572068125 -0.033906664962 -0.035103781049 -0.0361574961 
-0.037066978238 -0.03783503624 -0.038466621952 -0.038967360995 -0.039342589318 -0.039596799479 -0.039733826081 -0.039757128743 -0.039674266578 
-0.039483946522 -0.039190300523 -0.038798505161 -0.038314622016 -0.037745405477 -0.037097659507 -0.036377236781 -0.035587376593 -0.034725826829 
-0.033781020616 -0.032728097556 -0.03152724342 -0.030129233572 -0.02849364438 -0.026621052319 -0.024592669365 -0.022600109549 -0.020935726897 
-0.019905605467 -0.019642305957 -0.019933628312 -0.014187785524 -0.01424906861 -0.014482584282 -0.014941360415 -0.015623352919 -0.016509864717 