# vtk DataFile Version 4.1
vtk output
ASCII
DATASET STRUCTURED_GRID
DIMENSIONS 51 51 1
POINTS 2601 float
0 0 0 0.02 0 0 0.04 0 0 
0.06 0 0 0.08 0 0 0.1 0 0 
0.12 0 0 0.14 0 0 0.16 0 0 
0.18 0 0 0.2 0 0 0.22 0 0 
0.24 0 0 0.26 0 0 0.28 0 0 
0.3 0 0 0.32 0 0 0.34 0 0 
0.36 0 0 0.38 0 0 0.4 0 0 
0.42 0 0 0.44 0 0 0.46 0 0 
0.48 0 0 0.5 0 0 0.52 0 0 
0.54 0 0 0.56 0 0 0.58 0 0 
0.6 0 0 0.62 0 0 0.64 0 0 
0.66 0 0 0.68 0 0 0.7 0 0 
0.72 0 0 0.74 0 0 0.76 0 0 
0.78 0 0 0.8 0 0 0.82 0 0 
0.84 0 0 0.86 0 0 0.88 0 0 
0.9 0 0 0.92 0 0 0.94 0 0 
0.96 0 0 0.98 0 0 1 0 0 
0 0.02 0 0.02 0.02 0 0.04 0.02 0 
0.06 0.02 0 0.08 0.02 0 0.1 0.02 0 
0.12 0.02 0 0.14 0.02 0 0.16 0.02 0 
0.18 0.02 0 0.2 0.02 0 0.22 0.02 0 
0.24 0.02 0 0.26 0.02 0 0.28 0.02 0 
0.3 0.02 0 0.32 0.02 0 0.34 0.02 0 
0.36 0.02 0 0.38 0.02 0 0.4 0.02 0 
0.42 0.02 0 0.44 0.02 0 0.46 0.02 0 
0.48 0.02 0 0.5 0.02 0 0.52 0.02 0 
0.54 0.02 0 0.56 0.02 0 0.58 0.02 0 
0.6 0.02 0 0.62 0.02 0 0.64 0.02 0 
0.66 0.02 0 0.68 0.02 0 0.7 0.02 0 
0.72 0.02 0 0.74 0.02 0 0.76 0.02 0 
0.78 0.02 0 0.8 0.02 0 0.82 0.02 0 
0.84 0.02 0 0.86 0.02 0 0.88 0.02 0 
0.9 0.02 0 0.92 0.02 0 0.94 0.02 0 
0.96 0.02 0 0.98 0.02 0 1 0.02 0 
0 0.04 0 0.02 0.04 0 0.04 0.04 0 
0.06 0.04 0 0.08 0.04 0 0.1 0.04 0 
0.12 0.04 0 0.14 0.04 0 0.16 0.04 0 
0.18 0.04 0 0.2 0.04 0 0.22 0.04 0 
0.24 0.04 0 0.26 0.04 0 0.28 0.04 0 
0.3 0.04 0 0.32 0.04 0 0.34 0.04 0 
0.36 0.04 0 0.38 0.04 0 0.4 0.04 0 
0.42 0.04 0 0.44 0.04 0 0.46 0.04 0 
0.48 0.04 0 0.5 0.04 0 0.52 0.04 0 
0.54 0.04 0 0.56 0.04 0 0.58 0.04 0 
0.6 0.04 0 0.62 0.04 0 0.64 0.04 0 
0.66 0.04 0 0.68 0.04 0 0.7 0.04 0 
0.72 0.04 0 0.74 0.04 0 0.76 0.04 0 
0.78 0.04 0 0.8 0.04 0 0.82 0.04 0 
0.84 0.04 0 0.86 0.04 0 0.88 0.04 0 
0.9 0.04 0 0.92 0.04 0 0.94 0.04 0 
0.96 0.04 0 0.98 0.04 0 1 0.04 0 
0 0.06 0 0.02 0.06 0 0.04 0.06 0 
0.06 0.06 0 0.08 0.06 0 0.1 0.06 0 
0.12 0.06 0 0.14 0.06 0 0.16 0.06 0 
0.18 0.06 0 0.2 0.06 0 0.22 0.06 0 
0.24 0.06 0 0.26 0.06 0 0.28 0.06 0 
0.3 0.06 0 0.32 0.06 0 0.34 0.06 0 
0.36 0.06 0 0.38 0.06 0 0.4 0.06 0 
0.42 0.06 0 0.44 0.06 0 0.46 0.06 0 
0.48 0.06 0 0.5 0.06 0 0.52 0.06 0 
0.54 0.06 0 0.56 0.06 0 0.58 0.06 0 
0.6 0.06 0 0.62 0.06 0 0.64 0.06 0 
0.66 0.06 0 0.68 0.06 0 0.7 0.06 0 
0.72 0.06 0 0.74 0.06 0 0.76 0.06 0 
0.78 0.06 0 0.8 0.06 0 0.82 0.06 0 
0.84 0.06 0 0.86 0.06 0 0.88 0.06 0 
0.9 0.06 0 0.92 0.06 0 0.94 0.06 0 
0.96 0.06 0 0.98 0.06 0 1 0.06 0 
0 0.08 0 0.02 0.08 0 0.04 0.08 0 
0.06 0.08 0 0.08 0.08 0 0.1 0.08 0 
0.12 0.08 0 0.14 0.08 0 0.16 0.08 0 
0.18 0.08 0 0.2 0.08 0 0.22 0.08 0 
0.24 0.08 0 0.26 0.08 0 0.28 0.08 0 
0.3 0.08 0 0.32 0.08 0 0.34 0.08 0 
0.36 0.08 0 0.38 0.08 0 0.4 0.08 0 
0.42 0.08 0 0.44 0.08 0 0.46 0.08 0 
0.48 0.08 0 0.5 0.08 0 0.52 0.08 0 
0.54 0.08 0 0.56 0.08 0 0.58 0.08 0 
0.6 0.08 0 0.62 0.08 0 0.64 0.08 0 
0.66 0.08 0 0.68 0.08 0 0.7 0.08 0 
0.72 0.08 0 0.74 0.08 0 0.76 0.08 0 
0.78 0.08 0 0.8 0.08 0 0.82 0.08 0 
0.84 0.08 0 0.86 0.08 0 0.88 0.08 0 
0.9 0.08 0 0.92 0.08 0 0.94 0.08 0 
0.96 0.08 0 0.98 0.08 0 1 0.08 0 
0 0.1 0 0.02 0.1 0 0.04 0.1 0 
0.06 0.1 0 0.08 0.1 0 0.1 0.1 0 
0.12 0.1 0 0.14 0.1 0 0.16 0.1 0 
0.18 0.1 0 0.2 0.1 0 0.22 0.1 0 
0.24 0.1 0 0.26 0.1 0 0.28 0.1 0 
0.3 0.1 0 0.32 0.1 0 0.34 0.1 0 
0.36 0.1 0 0.38 0.1 0 0.4 0.1 0 
0.42 0.1 0 0.44 0.1 0 0.46 0.1 0 
0.48 0.1 0 0.5 0.1 0 0.52 0.1 0 
0.54 0.1 0 0.56 0.1 0 0.58 0.1 0 
0.6 0.1 0 0.62 0.1 0 0.64 0.1 0 
0.66 0.1 0 0.68 0.1 0 0.7 0.1 0 
0.72 0.1 0 0.74 0.1 0 0.76 0.1 0 
0.78 0.1 0 0.8 0.1 0 0.82 0.1 0 
0.84 0.1 0 0.86 0.1 0 0.88 0.1 0 
0.9 0.1 0 0.92 0.1 0 0.94 0.1 0 
0.96 0.1 0 0.98 0.1 0 1 0.1 0 
0 0.12 0 0.02 0.12 0 0.04 0.12 0 
0.06 0.12 0 0.08 0.12 0 0.1 0.12 0 
0.12 0.12 0 0.14 0.12 0 0.16 0.12 0 
0.18 0.12 0 0.2 0.12 0 0.22 0.12 0 
0.24 0.12 0 0.26 0.12 0 0.28 0.12 0 
0.3 0.12 0 0.32 0.12 0 0.34 0.12 0 
0.36 0.12 0 0.38 0.12 0 0.4 0.12 0 
0.42 0.12 0 0.44 0.12 0 0.46 0.12 0 
0.48 0.12 0 0.5 0.12 0 0.52 0.12 0 
0.54 0.12 0 0.56 0.12 0 0.58 0.12 0 
0.6 0.12 0 0.62 0.12 0 0.64 0.12 0 
0.66 0.12 0 0.68 0.12 0 0.7 0.12 0 
0.72 0.12 0 0.74 0.12 0 0.76 0.12 0 
0.78 0.12 0 0.8 0.12 0 0.82 0.12 0 
0.84 0.12 0 0.86 0.12 0 0.88 0.12 0 
0.9 0.12 0 0.92 0.12 0 0.94 0.12 0 
0.96 0.12 0 0.98 0.12 0 1 0.12 0 
0 0.14 0 0.02 0.14 0 0.04 0.14 0 
0.06 0.14 0 0.08 0.14 0 0.1 0.14 0 
0.12 0.14 0 0.14 0.14 0 0.16 0.14 0 
0.18 0.14 0 0.2 0.14 0 0.22 0.14 0 
0.24 0.14 0 0.26 0.14 0 0.28 0.14 0 
0.3 0.14 0 0.32 0.14 0 0.34 0.14 0 
0.36 0.14 0 0.38 0.14 0 0.4 0.14 0 
0.42 0.14 0 0.44 0.14 0 0.46 0.14 0 
0.48 0.14 0 0.5 0.14 0 0.52 0.14 0 
0.54 0.14 0 0.56 0.14 0 0.58 0.14 0 
0.6 0.14 0 0.62 0.14 0 0.64 0.14 0 
0.66 0.14 0 0.68 0.14 0 0.7 0.14 0 
0.72 0.14 0 0.74 0.14 0 0.76 0.14 0 
0.78 0.14 0 0.8 0.14 0 0.82 0.14 0 
0.84 0.14 0 0.86 0.14 0 0.88 0.14 0 
0.9 0.14 0 0.92 0.14 0 0.94 0.14 0 
0.96 0.14 0 0.98 0.14 0 1 0.14 0 
0 0.16 0 0.02 0.16 0 0.04 0.16 0 
0.06 0.16 0 0.08 0.16 0 0.1 0.16 0 
0.12 0.16 0 0.14 0.16 0 0.16 0.16 0 
0.18 0.16 0 0.2 0.16 0 0.22 0.16 0 
0.24 0.16 0 0.26 0.16 0 0.28 0.16 0 
0.3 0.16 0 0.32 0.16 0 0.34 0.16 0 
0.36 0.16 0 0.38 0.16 0 0.4 0.16 0 
0.42 0.16 0 0.44 0.16 0 0.46 0.16 0 
0.48 0.16 0 0.5 0.16 0 0.52 0.16 0 
0.54 0.16 0 0.56 0.16 0 0.58 0.16 0 
0.6 0.16 0 0.62 0.16 0 0.64 0.16 0 
0.66 0.16 0 0.68 0.16 0 0.7 0.16 0 
0.72 0.16 0 0.74 0.16 0 0.76 0.16 0 
0.78 0.16 0 0.8 0.16 0 0.82 0.16 0 
0.84 0.16 0 0.86 0.16 0 0.88 0.16 0 
0.9 0.16 0 0.92 0.16 0 0.94 0.16 0 
0.96 0.16 0 0.98 0.16 0 1 0.16 0 
0 0.18 0 0.02 0.18 0 0.04 0.18 0 
0.06 0.18 0 0.08 0.18 0 0.1 0.18 0 
0.12 0.18 0 0.14 0.18 0 0.16 0.18 0 
0.18 0.18 0 0.2 0.18 0 0.22 0.18 0 
0.24 0.18 0 0.26 0.18 0 0.28 0.18 0 
0.3 0.18 0 0.32 0.18 0 0.34 0.18 0 
0.36 0.18 0 0.38 0.18 0 0.4 0.18 0 
0.42 0.18 0 0.44 0.18 0 0.46 0.18 0 
0.48 0.18 0 0.5 0.18 0 0.52 0.18 0 
0.54 0.18 0 0.56 0.18 0 0.58 0.18 0 
0.6 0.18 0 0.62 0.18 0 0.64 0.18 0 
0.66 0.18 0 0.68 0.18 0 0.7 0.18 0 
0.72 0.18 0 0.74 0.18 0 0.76 0.18 0 
0.78 0.18 0 0.8 0.18 0 0.82 0.18 0 
0.84 0.18 0 0.86 0.18 0 0.88 0.18 0 
0.9 0.18 0 0.92 0.18 0 0.94 0.18 0 
0.96 0.18 0 0.98 0.18 0 1 0.18 0 
0 0.2 0 0.02 0.2 0 0.04 0.2 0 
0.06 0.2 0 0.08 0.2 0 0.1 0.2 0 
0.12 0.2 0 0.14 0.2 0 0.16 0.2 0 
0.18 0.2 0 0.2 0.2 0 0.22 0.2 0 
0.24 0.2 0 0.26 0.2 0 0.28 0.2 0 
0.3 0.2 0 0.32 0.2 0 0.34 0.2 0 
0.36 0.2 0 0.38 0.2 0 0.4 0.2 0 
0.42 0.2 0 0.44 0.2 0 0.46 0.2 0 
0.48 0.2 0 0.5 0.2 0 0.52 0.2 0 
0.54 0.2 0 0.56 0.2 0 0.58 0.2 0 
0.6 0.2 0 0.62 0.2 0 0.64 0.2 0 
0.66 0.2 0 0.68 0.2 0 0.7 0.2 0 
0.72 0.2 0 0.74 0.2 0 0.76 0.2 0 
0.78 0.2 0 0.8 0.2 0 0.82 0.2 0 
0.84 0.2 0 0.86 0.2 0 0.88 0.2 0 
0.9 0.2 0 0.92 0.2 0 0.94 0.2 0 
0.96 0.2 0 0.98 0.2 0 1 0.2 0 
0 0.22 0 0.02 0.22 0 0.04 0.22 0 
0.06 0.22 0 0.08 0.22 0 0.1 0.22 0 
0.12 0.22 0 0.14 0.22 0 0.16 0.22 0 
0.18 0.22 0 0.2 0.22 0 0.22 0.22 0 
0.24 0.22 0 0.26 0.22 0 0.28 0.22 0 
0.3 0.22 0 0.32 0.22 0 0.34 0.22 0 
0.36 0.22 0 0.38 0.22 0 0.4 0.22 0 
0.42 0.22 0 0.44 0.22 0 0.46 0.22 0 
0.48 0.22 0 0.5 0.22 0 0.52 0.22 0 
0.54 0.22 0 0.56 0.22 0 0.58 0.22 0 
0.6 0.22 0 0.62 0.22 0 0.64 0.22 0 
0.66 0.22 0 0.68 0.22 0 0.7 0.22 0 
0.72 0.22 0 0.74 0.22 0 0.76 0.22 0 
0.78 0.22 0 0.8 0.22 0 0.82 0.22 0 
0.84 0.22 0 0.86 0.22 0 0.88 0.22 0 
0.9 0.22 0 0.92 0.22 0 0.94 0.22 0 
0.96 0.22 0 0.98 0.22 0 1 0.22 0 
0 0.24 0 0.02 0.24 0 0.04 0.24 0 
0.06 0.24 0 0.08 0.24 0 0.1 0.24 0 
0.12 0.24 0 0.14 0.24 0 0.16 0.24 0 
0.18 0.24 0 0.2 0.24 0 0.22 0.24 0 
0.24 0.24 0 0.26 0.24 0 0.28 0.24 0 
0.3 0.24 0 0.32 0.24 0 0.34 0.24 0 
0.36 0.24 0 0.38 0.24 0 0.4 0.24 0 
0.42 0.24 0 0.44 0.24 0 0.46 0.24 0 
0.48 0.24 0 0.5 0.24 0 0.52 0.24 0 
0.54 0.24 0 0.56 0.24 0 0.58 0.24 0 
0.6 0.24 0 0.62 0.24 0 0.64 0.24 0 
0.66 0.24 0 0.68 0.24 0 0.7 0.24 0 
0.72 0.24 0 0.74 0.24 0 0.76 0.24 0 
0.78 0.24 0 0.8 0.24 0 0.82 0.24 0 
0.84 0.24 0 0.86 0.24 0 0.88 0.24 0 
0.9 0.24 0 0.92 0.24 0 0.94 0.24 0 
0.96 0.24 0 0.98 0.24 0 1 0.24 0 
0 0.26 0 0.02 0.26 0 0.04 0.26 0 
0.06 0.26 0 0.08 0.26 0 0.1 0.26 0 
0.12 0.26 0 0.14 0.26 0 0.16 0.26 0 
0.18 0.26 0 0.2 0.26 0 0.22 0.26 0 
0.24 0.26 0 0.26 0.26 0 0.28 0.26 0 
0.3 0.26 0 0.32 0.26 0 0.34 0.26 0 
0.36 0.26 0 0.38 0.26 0 0.4 0.26 0 
0.42 0.26 0 0.44 0.26 0 0.46 0.26 0 
0.48 0.26 0 0.5 0.26 0 0.52 0.26 0 
0.54 0.26 0 0.56 0.26 0 0.58 0.26 0 
0.6 0.26 0 0.62 0.26 0 0.64 0.26 0 
0.66 0.26 0 0.68 0.26 0 0.7 0.26 0 
0.72 0.26 0 0.74 0.26 0 0.76 0.26 0 
0.78 0.26 0 0.8 0.26 0 0.82 0.26 0 
0.84 0.26 0 0.86 0.26 0 0.88 0.26 0 
0.9 0.26 0 0.92 0.26 0 0.94 0.26 0 
0.96 0.26 0 0.98 0.26 0 1 0.26 0 
0 0.28 0 0.02 0.28 0 0.04 0.28 0 
0.06 0.28 0 0.08 0.28 0 0.1 0.28 0 
0.12 0.28 0 0.14 0.28 0 0.16 0.28 0 
0.18 0.28 0 0.2 0.28 0 0.22 0.28 0 
0.24 0.28 0 0.26 0.28 0 0.28 0.28 0 
0.3 0.28 0 0.32 0.28 0 0.34 0.28 0 
0.36 0.28 0 0.38 0.28 0 0.4 0.28 0 
0.42 0.28 0 0.44 0.28 0 0.46 0.28 0 
0.48 0.28 0 0.5 0.28 0 0.52 0.28 0 
0.54 0.28 0 0.56 0.28 0 0.58 0.28 0 
0.6 0.28 0 0.62 0.28 0 0.64 0.28 0 
0.66 0.28 0 0.68 0.28 0 0.7 0.28 0 
0.72 0.28 0 0.74 0.28 0 0.76 0.28 0 
0.78 0.28 0 0.8 0.28 0 0.82 0.28 0 
0.84 0.28 0 0.86 0.28 0 0.88 0.28 0 
0.9 0.28 0 0.92 0.28 0 0.94 0.28 0 
0.96 0.28 0 0.98 0.28 0 1 0.28 0 
0 0.3 0 0.02 0.3 0 0.04 0.3 0 
0.06 0.3 0 0.08 0.3 0 0.1 0.3 0 
0.12 0.3 0 0.14 0.3 0 0.16 0.3 0 
0.18 0.3 0 0.2 0.3 0 0.22 0.3 0 
0.24 0.3 0 0.26 0.3 0 0.28 0.3 0 
0.3 0.3 0 0.32 0.3 0 0.34 0.3 0 
0.36 0.3 0 0.38 0.3 0 0.4 0.3 0 
0.42 0.3 0 0.44 0.3 0 0.46 0.3 0 
0.48 0.3 0 0.5 0.3 0 0.52 0.3 0 
0.54 0.3 0 0.56 0.3 0 0.58 0.3 0 
0.6 0.3 0 0.62 0.3 0 0.64 0.3 0 
0.66 0.3 0 0.68 0.3 0 0.7 0.3 0 
0.72 0.3 0 0.74 0.3 0 0.76 0.3 0 
0.78 0.3 0 0.8 0.3 0 0.82 0.3 0 
0.84 0.3 0 0.86 0.3 0 0.88 0.3 0 
0.9 0.3 0 0.92 0.3 0 0.94 0.3 0 
0.96 0.3 0 0.98 0.3 0 1 0.3 0 
0 0.32 0 0.02 0.32 0 0.04 0.32 0 
0.06 0.32 0 0.08 0.32 0 0.1 0.32 0 
0.12 0.32 0 0.14 0.32 0 0.16 0.32 0 
0.18 0.32 0 0.2 0.32 0 0.22 0.32 0 
0.24 0.32 0 0.26 0.32 0 0.28 0.32 0 
0.3 0.32 0 0.32 0.32 0 0.34 0.32 0 
0.36 0.32 0 0.38 0.32 0 0.4 0.32 0 
0.42 0.32 0 0.44 0.32 0 0.46 0.32 0 
0.48 0.32 0 0.5 0.32 0 0.52 0.32 0 
0.54 0.32 0 0.56 0.32 0 0.58 0.32 0 
[...]
CELL_DATA 2500
FIELD FieldData 2
pressure 1 2500 double
-0.005642956157 -0.0056357210892 -0.0056652120981 -0.0057341634991 -0.0058345076987 -0.0059576784768 -0.0060996646009 -0.0062604577608 -0.0064425895008 
-0.0066487012345 -0.0068817199781 -0.0071428883148 -0.0074306953318 -0.0077446359684 -0.0080801381805 -0.008430528468 -0.0087861501038 -0.0091341987525 
-0.0094590850517 -0.0097430129409 -0.0099666888415 -0.01011012656 -0.010153525668 -0.010078227002 -0.009867754267 -0.0095089319626 -0.0089930711927 
-0.0083172559715 -0.0074857908999 -0.0065118928154 -0.0054229852035 -0.0042786646763 -0.0031221373647 -0.0020089053712 -0.0010018806356 -0.00016635355001 
0.00043693302989 0.00076066485314 0.00078104482777 0.00050757384982 1.8336385503e-05 -0.0006050670792 -0.0012636299975 -0.0018616887554 -0.002334392628 
-0.0026679110502 -0.0028743895467 -0.0029746273126 -0.0029903099213 -0.0029493909747 -0.0056597186293 -0.0056530852292 -0.0056820780316 -0.0057451251994 
-0.0058363611642 -0.0059495993088 -0.0060817348206 -0.0062319187603 -0.0064024093205 -0.0065941573371 -0.0068117791288 -0.0070580899864 -0.0073321979706 
-0.0076337735586 -0.0079595175907 -0.0083032374525 -0.0086556880419 -0.0090045720238 -0.0093347588085 -0.0096287044769 -0.0098670699368 -0.010029512269 
-0.010095630806 -0.010046026917 -0.0098634219036 -0.0095337981953 -0.0090475452184 -0.0084005656339 -0.007595298491 -0.006642022034 -0.0056055035904 
-0.0044983626722 -0.0033730719336 -0.0022870067433 -0.0013028575835 -0.00048488066638 0.00010762044787 0.00042908037126 0.00045803440138 0.00020771105704 
-0.00026629662942 -0.00083247727504 -0.0014334190349 -0.0019731345875 -0.0023899229816 -0.0026761908613 -0.0028497631118 -0.0029350212704 -0.0029521673603 
-0.0029102001108 -0.0056443533362 -0.0056352221941 -0.0056647534683 -0.0057283289967 -0.0058182088179 -0.0059263087831 -0.0060505977739 -0.0061873634802 
-0.0063431984882 -0.0065218932964 -0.0067278688637 -0.0069654259305 -0.0072363688713 -0.0075405432502 -0.0078749904681 -0.0082336478313 -0.0086072158536 
-0.0089831383111 -0.0093457499781 -0.0096766670109 -0.0099554424342 -0.010160469017 -0.010270056291 -0.010263587583 -0.010122694897 -0.0098324018877 
-0.0093821609287 -0.0087665681055 -0.0079849308628 -0.0070877462573 -0.0060782025911 -0.0049934529829 -0.0038829423772 -0.0028035951444 -0.0018177254576 
-0.00098914951368 -0.00037695918956 -2.7007025601e-05 3.8355920486e-05 -0.00016908745106 -0.00059534157792 -0.0011438306548 -0.0017033545497 -0.0022100810934 
-0.0025859031503 -0.0028188329601 -0.0029470860673 -0.0030005373605 -0.0030011487528 -0.0029495460938 -0.0055832384024 -0.0055778125434 -0.0056144065712 
-0.0056854064458 -0.0057793268516 -0.0058859007398 -0.0060026077986 -0.006130130146 -0.0062767120732 -0.0064499852748 -0.0066571145231 -0.0069037584922 
-0.007192832005 -0.0075242832867 -0.0078948437414 -0.0082977749355 -0.0087227131291 -0.0091556534514 -0.0095791808375 -0.0099730117871 -0.010314845565 
-0.010581435531 -0.010749774643 -0.010798313203 -0.010708148221 -0.010464142283 -0.010055954741 -0.009479069029 -0.0087425874834 -0.0078806943208 
-0.0068963703329 -0.0058284293928 -0.0047242539185 -0.0036389625947 -0.0026333178815 -0.0017699905771 -0.0011077370378 -0.00069340035204 -0.0005522124927 
-0.00067783780999 -0.0010252139266 -0.0015114185118 -0.0020308027364 -0.0024990123734 -0.0028557706661 -0.0030526910502 -0.0031413316498 -0.0031623481369 
-0.0031442353334 -0.0030908711082 -0.0054706727473 -0.0054780860442 -0.0055295797344 -0.0056126192996 -0.0057131242995 -0.0058220819876 -0.0059375558527 
-0.0060659141207 -0.0062179476009 -0.0064048527606 -0.0066360518895 -0.0069180654872 -0.0072539085957 -0.0076428776896 -0.0080804043377 -0.0085579139607 
-0.0090627674227 -0.0095784363888 -0.010084986767 -0.010559880629 -0.010979019024 -0.011317918042 -0.011552930384 -0.011662439291 -0.011627981787 
-0.011435274963 -0.011075099686 -0.010543871521 -0.0098632167547 -0.0090322513725 -0.008073301422 -0.0070206579849 -0.0059181209178 -0.0048175317618 
-0.0037767320386 -0.0028561748119 -0.0021137020032 -0.0015973383196 -0.0013365104954 -0.0013330202299 -0.0015544588455 -0.0019341371817 -0.0023814602338 
-0.0028027241925 -0.0031159456905 -0.00331227097 -0.0033819078256 -0.0033866280722 -0.003360639819 -0.0033155221852 -0.0053065217572 -0.0053360789296 
-0.0054070398286 -0.0055038010805 -0.0056163806727 -0.0057341792963 -0.0058611813535 -0.0060081176799 -0.0061886765655 -0.0064160020453 -0.0067003547197 
-0.007048099928 -0.0074613021533 -0.0079375646583 -0.0084699874021 -0.0090471821724 -0.009653491391 -0.010269484666 -0.010872740811 -0.011438857898 
-0.011942595857 -0.012359064782 -0.01266488081 -0.012839254913 -0.012864996983 -0.012729446374 -0.012425356974 -0.011951826501 -0.011321369078 
-0.010529920041 -0.00960057117 -0.0085646069267 -0.0074617470885 -0.0063394589178 -0.0052514121685 -0.0042547019745 -0.003405464107 -0.0027527224694 
-0.0023307692152 -0.0021511409125 -0.0021962674499 -0.002417721725 -0.0027417332399 -0.0030824789159 -0.0033615568982 -0.0035376010078 -0.0036206811338 
-0.0036363593165 -0.0036200882028 -0.0035915405842 -0.0050975199693 -0.0051561518378 -0.005248346645 -0.0053636980709 -0.0054916055613 -0.0056304510125 
-0.0057879790331 -0.0059776526272 -0.0062145092034 -0.0065118750604 -0.0068794132658 -0.0073221903895 -0.007840290642 -0.0084287320352 -0.0090775465428 
-0.0097720942887 -0.010493631518 -0.01122012059 -0.011927232736 -0.012589458658 -0.013181250476 -0.013678121188 -0.014057668402 -0.014300500318 
-0.014391082971 -0.014318547549 -0.014077553291 -0.013669383992 -0.013091994395 -0.012345726367 -0.011450845008 -0.010434810767 -0.009332544647 
-0.0081861721072 -0.0070440473229 -0.0059587475059 -0.0049837112797 -0.0041683376446 -0.0035517037237 -0.0031556339255 -0.0029785837846 -0.0029924164761 
-0.0031442082225 -0.0033646198349 -0.0035839200789 -0.0037553977803 -0.0038564803214 -0.0038923242334 -0.0039020981389 -0.0038956068181 -0.0048621865649 
-0.0049539379392 -0.0050669637772 -0.0052015972116 -0.0053554982365 -0.0055323828623 -0.0057427649307 -0.0060009880745 -0.0063215869337 -0.006716593049 
-0.0071938538325 -0.0077561158326 -0.0084006672437 -0.009119323459 -0.0098987736458 -0.010721220127 -0.011565246798 -0.012406850589 -0.01322054792 
-0.013980486281 -0.014661499549 -0.015240073966 -0.015695191922 -0.016009074828 -0.016167849972 -0.016162220554 -0.015988229241 -0.01564820059 
-0.01512819416 -0.014431975576 -0.013576736375 -0.012585649852 -0.01148823981 -0.01032047834 -0.0091243909408 -0.0079468891796 -0.0068375317608 
-0.0058449968931 -0.005012277796 -0.0043710102633 -0.0039358516219 -0.0037002984848 -0.0036355596694 -0.0036940038193 -0.0038182384369 -0.0039549836705 
-0.0040672097692 -0.0041553019342 -0.0042030460787 -0.0042212228842 -0.0046295471553 -0.0047520760442 -0.0048852629997 -0.005045619352 -0.0052385228071 
-0.0054715251828 -0.0057561579473 -0.0061058780666 -0.006533341248 -0.0070481834329 -0.0076554722322 -0.0083548519537 -0.0091402198692 -0.009999940355 
-0.010917467987 -0.011872251406 -0.012840804583 -0.01379783897 -0.014717379612 -0.015573810481 -0.016342812519 -0.017002157648 -0.017532374692 
-0.017917299005 -0.018144585566 -0.01820624825 -0.0180992866 -0.017826440387 -0.017365895556 -0.016723399608 -0.015913066383 -0.014953576689 
-0.013868684712 -0.012687633944 -0.011445307806 -0.010181883705 -0.008941723492 -0.0077712636181 -0.0067157964881 -0.0058152676551 -0.0050995289704 
-0.0045838053725 -0.0042653566075 -0.0041224043265 -0.0041164062999 -0.0041988196139 -0.0043234815126 -0.0044494088657 -0.0045339946038 -0.0045771121843 
-0.0044361883586 -0.0045834259443 -0.0047397165067 -0.0049338096488 -0.0051783052647 -0.0054829967309 -0.005858841167 -0.0063172488107 -0.0068681104971 
-0.0075178561019 -0.00826806952 -0.0091147023802 -0.010047975109 -0.01105283696 -0.012109818354 -0.013196106368 -0.014286706721 -0.015355592568 
-0.016376777925 -0.017325270568 -0.018177861791 -0.018913760721 -0.019515079263 -0.019967241422 -0.020259358459 -0.020384627869 -0.020340787149 
-0.020130650287 -0.019729051465 -0.019142459756 -0.018381990714 -0.017461846306 -0.016399923493 -0.015218475631 -0.01394471396 -0.012611183222 
-0.011255702084 -0.0099206440625 -0.0086513656819 -0.0074936764423 -0.0064903802822 -0.0056770558262 -0.0050773469617 -0.0046981231961 -0.0045251275074 
-0.0045206150923 -0.0046264883132 -0.0047748313109 -0.004908253224 -0.0049792257903 -0.0043228502845 -0.0044912559135 -0.004671966357 -0.0049064265486 
-0.0052119819425 -0.005598979155 -0.0060767920468 -0.0066541497399 -0.0073375828799 -0.008129757742 -0.0090282407327 -0.010024982396 -0.011106481838 
-0.01225446863 -0.013446903664 -0.014659137541 -0.015865093554 -0.017038390543 -0.018153353258 -0.019185840283 -0.020113898597 -0.020918244468 
-0.021582631972 -0.02209413733 -0.022443400802 -0.022624841767 -0.022636888301 -0.022482244967 -0.022136645842 -0.021606441251 -0.020899929228 
-0.020027080228 -0.019000170108 -0.017834568056 -0.016549635609 -0.015169660499 -0.013724698444 -0.012251139983 -0.010791772099 -0.0093950689866 
-0.0081134060957 -0.0069998291968 -0.0061029144241 -0.0054592104175 -0.0050830838302 -0.0049553641925 -0.0050166936558 -0.0051775377832 -0.0053514351055 
-0.0054494204391 -0.0043282404598 -0.0045128372313 -0.0047191520169 -0.0049981461458 -0.0053698139283 -0.0058440311941 -0.0064281499926 -0.0071278559294 
-0.0079459551096 -0.0088809381571 -0.0099260810499 -0.011069259475 -0.012293366805 -0.013577151799 -0.014896310177 -0.016224671746 -0.017535370836 
-0.018801937287 -0.019999194095 -0.021103981357 -0.022095687017 -0.022956638209 -0.023672376016 -0.024231819029 -0.024627324358 -0.02485468069 
-0.024913054092 -0.024804961918 -0.024510398455 -0.024035264428 -0.02338534407 -0.022566861285 -0.021587031297 -0.020454824986 -0.019181984719 
-0.017784312164 -0.016283196179 -0.014707275994 -0.013094030795 -0.011490945434 -0.009955704181 -0.0085545928014 -0.0073579465034 -0.0064312078515 
-0.0058204063552 -0.0055328000149 -0.005519327881 -0.005676519282 -0.0058795996696 -0.0060048063158 -0.0044800413439 -0.0046764776611 -0.004908489174 
-0.0052331049696 -0.0056714853775 -0.0062326168774 -0.0069216515682 -0.0077410656186 -0.0086896934111 -0.0097616682977 -0.010945943716 -0.012226421422 
-0.013582571316 -0.014990391726 -0.01642355119 -0.017854583648 -0.019256057273 -0.020601559876 -0.021866525976 -0.023028860503 -0.02406940864 
-0.024972291199 -0.02572507319 -0.026318767513 -0.026747681293 -0.027009130367 -0.027103097477 -0.027031935762 -0.026782041188 -0.026358932271 
-0.025766302458 -0.025007316712 -0.024084969225 -0.023002684174 -0.02176526529 -0.020380301799 -0.018860112828 -0.017224236918 -0.015502335839 
-0.013737167756 -0.011986951834 -0.010325966952 -0.0088416050447 -0.0076255088107 -0.0067563840589 -0.0062738799548 -0.0061492202392 -0.006272589263 
-0.006484925007 -0.0066541464691 -0.0047942175796 -0.0049983169018 -0.0052545147868 -0.0056229066894 -0.00612491705 -0.0067684486388 -0.0075564097298 
-0.0084879771728 -0.0095579472649 -0.010756157887 -0.012067388875 -0.0134717655 -0.01494555255 -0.016462209208 -0.017993572424 -0.019511084089 
-0.020986866718 -0.022394669243 -0.023710612467 -0.024913779929 -0.025986668013 -0.026915436093 -0.027689933377 -0.028303501031 -0.028752557072 
-0.029036049942 -0.029154869241 -0.029111309749 -0.028899062288 -0.028523463377 -0.027986625633 -0.027289472265 -0.026431827302 -0.025412742621 
-0.024231208287 -0.022887439162 -0.021384930534 -0.019733425835 -0.017952811336 -0.016077696358 -0.014161993657 -0.012282139808 -0.010536684023 
-0.0090389942231 -0.0078993377785 -0.0071939873149 -0.0069253118226 -0.006993418328 -0.0072215416788 -0.0074218442075 -0.005273962929 -0.0054814375533 
-0.0057587892386 -0.0061668895742 -0.006726781604 -0.007445149269 -0.0083226302268 -0.0093551179843 -0.010533530927 -0.011843642836 -0.013266328166 
-0.014778198532 -0.016352555206 -0.017960530808 -0.019572348993 -0.021158482532 -0.022690717318 -0.024143035942 -0.025492356133 -0.026719138264 
-0.02780777319 -0.028746700861 -0.029528255022 -0.030148209326 -0.030605140822 -0.030899675652 -0.031033683502 -0.031009427462 -0.030827918593 
-0.03049425934 -0.03000952479 -0.029373274066 -0.028583331779 -0.027635775304 -0.026525285084 -0.025246092517 -0.023793822907 -0.022168544203 
-0.02037923884 -0.018449650553 -0.016424945949 -0.014377791678 -0.012411246189 -0.010654445742 -0.0092459831395 -0.0083005532511 -0.0078600457218 
-0.0078471859962 -0.0080718797096 -0.0083075082306 -0.0059104443011 -0.0061168975285 -0.0064113621259 -0.0068537181594 -0.0074640607804 -0.008247696617 
-0.0092029851366 -0.01032273528 -0.01159429 -0.012999714353 -0.014516317526 -0.016117512578 -0.017773908205 -0.019454578627 -0.02112829574 
-0.022764699113 -0.02433532472 -0.025814504909 -0.027180162063 -0.028414377308 -0.029503660618 -0.030438903537 -0.031214961608 -0.031830006655 
-0.032284705646 -0.032581347677 -0.032722956414 -0.032710927378 -0.032554144097 -0.03225628746 -0.031818080884 -0.031238590033 -0.030514802805 
-0.029641306933 -0.028610211577 -0.027411583911 -0.026034792335 -0.024471230146 -0.022718873629 -0.020788915279 -0.018714179701 -0.016558059372 
-0.014421231612 -0.01244153279 -0.010780574588 -0.0095903661696 -0.0089575641363 -0.0088392170461 -0.0090435577366 -0.0093115021444 -0.0066848388077 
-0.0068860310369 -0.007193143157 -0.0076636297399 -0.0083161034646 -0.0091542978464 -0.010174410011 -0.011366473439 -0.012714665171 -0.014197755446 
-0.015789889706 -0.017461636794 -0.019181255333 -0.020915995804 -0.022633361839 -0.024302282549 -0.025894177955 -0.02738395394 -0.028750788558 
-0.029978603356 -0.031056185707 -0.03197687529 -0.032737955905 -0.033339819581 -0.03378504047 -0.034077420069 -0.034221102133 -0.034216971938 
-0.034079634249 -0.033811234382 -0.033412645059 -0.032883140464 -0.032219888614 -0.031417368957 -0.030466870371 -0.029356338721 -0.028071005763 
-0.026595407588 -0.024917505887 -0.023035514777 -0.020967542398 -0.018763116121 -0.016513942026 -0.014358882679 -0.01247554943 -0.011049390174 
-0.010213870273 -0.0099700463517 -0.010137700111 -0.010430143476 -0.0075711103282 -0.0077632633523 -0.0080785533957 -0.008570875868 -0.0092568345264 
-0.010138472526 -0.011210027308 -0.012459140692 -0.013867267543 -0.015410348208 -0.017059800372 -0.018783769878 -0.02054849477 -0.022319649206 
-0.024063647782 -0.025748874754 -0.027346878477 -0.02883340467 -0.030189109483 -0.031399916328 -0.032456873174 -0.033355653973 -0.03409575038 
-0.034679516735 -0.03511113248 -0.035395603145 -0.035537870266 -0.035540009329 -0.035417511132 -0.035172430554 -0.034805966481 -0.034318055415 
-0.033706782272 -0.032967621594 -0.03209258877 -0.031069514084 -0.029881854238 -0.028509724028 -0.026933082739 -0.025138079632 -0.023127207286 
-0.020932871594 -0.018632067313 -0.016357011726 -0.014293158743 -0.01265317389 -0.011616243936 -0.011234500407 -0.011353338865 -0.011668515144 
-0.0085389474269 -0.0087188964306 -0.0090381003197 -0.0095460549705 -0.010256945083 -0.011171092653 -0.012281018725 -0.01357236493 -0.015024335593 
-0.016610524432 -0.018300102997 -0.020059216981 -0.021852403976 -0.023644009981 -0.025399571881 -0.027087196681 -0.028678850939 -0.03015134852 
-0.031486995508 -0.032673699074 -0.033704658322 -0.034577658901 -0.035294134042 -0.035858057187 -0.036274833242 -0.036550305044 -0.036689924324 
-0.036697270098 -0.036586211674 -0.036359037598 -0.03601744366 -0.035562266365 -0.034992935496 -0.034306650202 -0.033497310762 -0.032554336383 
-0.031461699936 -0.030197834542 -0.028737482095 -0.027056881398 -0.025143584971 -0.023011263307 -0.020717805354 -0.018381743952 -0.016187744462 
-0.014367643992 -0.013142172022 -0.012617871347 -0.012677168227 -0.013005759738 -0.0095564354114 -0.0097215824539 -0.010040621262 -0.010558217057 
-0.011285886745 -0.012222228207 -0.013358270042 -0.014678043216 -0.016158967249 -0.017772791123 -0.019486928335 -0.021265914648 -0.023072904161 
-0.024871181313 -0.026625700418 -0.0283046109 -0.02988053826 -0.031331546544 -0.032641579343 -0.033800426725 -0.034803227951 -0.035649632248 
-0.03634267603 -0.03688755421 -0.037290478278 -0.037557702649 -0.037694851132 -0.037706893712 -0.037604764277 -0.037391022358 -0.037067873141 
-0.036637092901 -0.036099587589 -0.0354546127 -0.034698637279 -0.033823888732 -0.032816771378 -0.031656686239 -0.030316327621 -0.028765139417 
-0.026977891379 -0.02494968902 -0.022716648648 -0.020377792638 -0.01810858112 -0.016150782255 -0.014759734045 -0.014095944562 -0.014087877737 
-0.014421336502 -0.010592288435 -0.010740269695 -0.011055097982 -0.011576632134 -0.012313549345 -0.013262676105 -0.014413736294 -0.015749506084 
-0.017246078859 -0.018873862678 -0.020598954451 -0.02238465118 -0.024193046806 -0.02598669147 -0.027730309414 -0.029392359456 -0.030946317721 
-0.032371502153 -0.033653396293 -0.034783474844 -0.035758592331 -0.036579946752 -0.037251800024 -0.037780165254 -0.038171612151 -0.038432402471 
-0.038568004145 -0.038584490293 -0.038489452951 -0.038285631504 -0.037975639718 -0.037562077465 -0.037047233045 -0.0364324195 -0.035716904657 
-0.034896378782 -0.033960995887 -0.032893319289 -0.031667091836 -0.030248600381 -0.028603179719 -0.026709265054 -0.024580471625 -0.02229217509 
-0.020003109474 -0.01795530837 -0.016429714876 -0.01563693846 -0.015557472703 -0.015888170252 -0.011617660172 -0.011745429273 -0.012051971992 
-0.012572151683 -0.013311567977 -0.01426515996 -0.015421482594 -0.016762381214 -0.018263077069 -0.0198930924 -0.021617608753 -0.02339905533 
-0.025198825198 -0.026979120419 -0.028704742357 -0.030344667995 -0.0318732592 -0.03327099141 -0.034524702688 -0.035627342076 -0.036577185091 
-0.03737663074 -0.03803079172 -0.038546077112 -0.038929039985 -0.039185634751 -0.039320869865 -0.039341469653 -0.039252169793 -0.039055619151 
-0.038754658511 -0.038352528065 -0.037852683425 -0.037258278374 -0.036571248232 -0.035790871029 -0.03491170103 -0.033920959279 -0.032796030052 
-0.031503685664 -0.030003900519 -0.028261780994 -0.026269651147 -0.024077105866 -0.021820129758 -0.019731740039 -0.018108255566 -0.01720363564 
-0.017052969161 -0.017374660942 -0.012608140887 -0.012708892292 -0.013003975258 -0.013518214865 -0.014254314555 -0.015205214685 -0.0163584284 
-0.017695183672 -0.019190244818 -0.020812652238 -0.022527069711 -0.024295443714 -0.026078882743 -0.02783959564 -0.029542703237 -0.031157782494 
-0.032659999735 -0.034030820194 -0.035258230241 -0.036336376192 -0.037264622555 -0.038046209418 -0.038686706828 -0.039192574584 -0.039570094735 
-0.039824719526 -0.039960879152 -0.039984571319 -0.039900179246 -0.039708950284 -0.039413882946 -0.039018711283 -0.038527823092 -0.037945888334 
-0.037277143399 -0.036524180152 -0.035686008357 -0.034755227072 -0.033714664441 -0.032534731977 -0.031174282548 -0.029589419222 -0.027754091115 
-0.025692075323 -0.023512530556 -0.021431306 -0.019749526412 -0.01875555656 -0.018538183145 -0.018846383285 -0.013536442937 -0.013613819301 
-0.013887245454 -0.014391717669 -0.015119673826 -0.016061808413 -0.017204848714 -0.018529646965 -0.020010890768 -0.021617542538 -0.023314145932 
-0.025062599708 -0.026824131473 -0.028561249301 -0.030239528386 -0.031829113081 -0.033305837025 -0.034651958195 -0.035856350498 -0.036914025578 
-0.037825078405 -0.03859320459 -0.039224085934 -0.039723997368 -0.040098768279 -0.040353290415 -0.040491507055 -0.040516957575 -0.040436965718 
-0.040249527233 -0.039957909528 -0.03956626657 -0.039079710057 -0.038504077811 -0.037845438907 -0.037109186623 -0.036298405558 -0.035411117719 
-0.034436509282 -0.033350937681 -0.032115982841 -0.03068347484 -0.029013177802 -0.027104970605 -0.025039289175 -0.023008388068 -0.021308132211 
-0.020250973968 -0.019975330128 -0.020267466977 -0.014378992263 -0.014443944634 -0.01469065374 -0.015173489347 -0.015889653319 -0.016817726962 
-0.017944666001 -0.01925083984 -0.020711347784 -0.022295485653 -0.023968101839 -0.025691488403 -0.027427345253 -0.029138676422 -0.030791536118 