# vtk DataFile Version 4.1
vtk output
ASCII
DATASET STRUCTURED_GRID
DIMENSIONS 51 51 1
POINTS 2601 float
0 0 0 0.02 0 0 0.04 0 0 
0.06 0 0 0.08 0 0 0.1 0 0 
0.12 0 0 0.14 0 0 0.16 0 0 
0.18 0 0 0.2 0 0 0.22 0 0 
0.24 0 0 0.26 0 0 0.28 0 0 
0.3 0 0 0.32 0 0 0.34 0 0 
0.36 0 0 0.38 0 0 0.4 0 0 
0.42 0 0 0.44 0 0 0.46 0 0 
0.48 0 0 0.5 0 0 0.52 0 0 
0.54 0 0 0.56 0 0 0.58 0 0 
0.6 0 0 0.62 0 0 0.64 0 0 
0.66 0 0 0.68 0 0 0.7 0 0 
0.72 0 0 0.74 0 0 0.76 0 0 
0.78 0 0 0.8 0 0 0.82 0 0 
0.84 0 0 0.86 0 0 0.88 0 0 
0.9 0 0 0.92 0 0 0.94 0 0 
0.96 0 0 0.98 0 0 1 0 0 
0 0.02 0 0.02 0.02 0 0.04 0.02 0 
0.06 0.02 0 0.08 0.02 0 0.1 0.02 0 
0.12 0.02 0 0.14 0.02 0 0.16 0.02 0 
0.18 0.02 0 0.2 0.02 0 0.22 0.02 0 
0.24 0.02 0 0.26 0.02 0 0.28 0.02 0 
0.3 0.02 0 0.32 0.02 0 0.34 0.02 0 
0.36 0.02 0 0.38 0.02 0 0.4 0.02 0 
0.42 0.02 0 0.44 0.02 0 0.46 0.02 0 
0.48 0.02 0 0.5 0.02 0 0.52 0.02 0 
0.54 0.02 0 0.56 0.02 0 0.58 0.02 0 
0.6 0.02 0 0.62 0.02 0 0.64 0.02 0 
0.66 0.02 0 0.68 0.02 0 0.7 0.02 0 
0.72 0.02 0 0.74 0.02 0 0.76 0.02 0 
0.78 0.02 0 0.8 0.02 0 0.82 0.02 0 
0.84 0.02 0 0.86 0.02 0 0.88 0.02 0 
0.9 0.02 0 0.92 0.02 0 0.94 0.02 0 
0.96 0.02 0 0.98 0.02 0 1 0.02 0 
0 0.04 0 0.02 0.04 0 0.04 0.04 0 
0.06 0.04 0 0.08 0.04 0 0.1 0.04 0 
0.12 0.04 0 0.14 0.04 0 0.16 0.04 0 
0.18 0.04 0 0.2 0.04 0 0.22 0.04 0 
0.24 0.04 0 0.26 0.04 0 0.28 0.04 0 
0.3 0.04 0 0.32 0.04 0 0.34 0.04 0 
0.36 0.04 0 0.38 0.04 0 0.4 0.04 0 
0.42 0.04 0 0.44 0.04 0 0.46 0.04 0 
0.48 0.04 0 0.5 0.04 0 0.52 0.04 0 
0.54 0.04 0 0.56 0.04 0 0.58 0.04 0 
0.6 0.04 0 0.62 0.04 0 0.64 0.04 0 
0.66 0.04 0 0.68 0.04 0 0.7 0.04 0 
0.72 0.04 0 0.74 0.04 0 0.76 0.04 0 
0.78 0.04 0 0.8 0.04 0 0.82 0.04 0 
0.84 0.04 0 0.86 0.04 0 0.88 0.04 0 
0.9 0.04 0 0.92 0.04 0 0.94 0.04 0 
0.96 0.04 0 0.98 0.04 0 1 0.04 0 
0 0.06 0 0.02 0.06 0 0.04 0.06 0 
0.06 0.06 0 0.08 0.06 0 0.1 0.06 0 
0.12 0.06 0 0.14 0.06 0 0.16 0.06 0 
0.18 0.06 0 0.2 0.06 0 0.22 0.06 0 
0.24 0.06 0 0.26 0.06 0 0.28 0.06 0 
0.3 0.06 0 0.32 0.06 0 0.34 0.06 0 
0.36 0.06 0 0.38 0.06 0 0.4 0.06 0 
0.42 0.06 0 0.44 0.06 0 0.46 0.06 0 
0.48 0.06 0 0.5 0.06 0 0.52 0.06 0 
0.54 0.06 0 0.56 0.06 0 0.58 0.06 0 
0.6 0.06 0 0.62 0.06 0 0.64 0.06 0 
0.66 0.06 0 0.68 0.06 0 0.7 0.06 0 
0.72 0.06 0 0.74 0.06 0 0.76 0.06 0 
0.78 0.06 0 0.8 0.06 0 0.82 0.06 0 
0.84 0.06 0 0.86 0.06 0 0.88 0.06 0 
0.9 0.06 0 0.92 0.06 0 0.94 0.06 0 
0.96 0.06 0 0.98 0.06 0 1 0.06 0 
0 0.08 0 0.02 0.08 0 0.04 0.08 0 
0.06 0.08 0 0.08 0.08 0 0.1 0.08 0 
0.12 0.08 0 0.14 0.08 0 0.16 0.08 0 
0.18 0.08 0 0.2 0.08 0 0.22 0.08 0 
0.24 0.08 0 0.26 0.08 0 0.28 0.08 0 
0.3 0.08 0 0.32 0.08 0 0.34 0.08 0 
0.36 0.08 0 0.38 0.08 0 0.4 0.08 0 
0.42 0.08 0 0.44 0.08 0 0.46 0.08 0 
0.48 0.08 0 0.5 0.08 0 0.52 0.08 0 
0.54 0.08 0 0.56 0.08 0 0.58 0.08 0 
0.6 0.08 0 0.62 0.08 0 0.64 0.08 0 
0.66 0.08 0 0.68 0.08 0 0.7 0.08 0 
0.72 0.08 0 0.74 0.08 0 0.76 0.08 0 
0.78 0.08 0 0.8 0.08 0 0.82 0.08 0 
0.84 0.08 0 0.86 0.08 0 0.88 0.08 0 
0.9 0.08 0 0.92 0.08 0 0.94 0.08 0 
0.96 0.08 0 0.98 0.08 0 1 0.08 0 
0 0.1 0 0.02 0.1 0 0.04 0.1 0 
0.06 0.1 0 0.08 0.1 0 0.1 0.1 0 
0.12 0.1 0 0.14 0.1 0 0.16 0.1 0 
0.18 0.1 0 0.2 0.1 0 0.22 0.1 0 
0.24 0.1 0 0.26 0.1 0 0.28 0.1 0 
0.3 0.1 0 0.32 0.1 0 0.34 0.1 0 
0.36 0.1 0 0.38 0.1 0 0.4 0.1 0 
0.42 0.1 0 0.44 0.1 0 0.46 0.1 0 
0.48 0.1 0 0.5 0.1 0 0.52 0.1 0 
0.54 0.1 0 0.56 0.1 0 0.58 0.1 0 
0.6 0.1 0 0.62 0.1 0 0.64 0.1 0 
0.66 0.1 0 0.68 0.1 0 0.7 0.1 0 
0.72 0.1 0 0.74 0.1 0 0.76 0.1 0 
0.78 0.1 0 0.8 0.1 0 0.82 0.1 0 
0.84 0.1 0 0.86 0.1 0 0.88 0.1 0 
0.9 0.1 0 0.92 0.1 0 0.94 0.1 0 
0.96 0.1 0 0.98 0.1 0 1 0.1 0 
0 0.12 0 0.02 0.12 0 0.04 0.12 0 
0.06 0.12 0 0.08 0.12 0 0.1 0.12 0 
0.12 0.12 0 0.14 0.12 0 0.16 0.12 0 
0.18 0.12 0 0.2 0.12 0 0.22 0.12 0 
0.24 0.12 0 0.26 0.12 0 0.28 0.12 0 
0.3 0.12 0 0.32 0.12 0 0.34 0.12 0 
0.36 0.12 0 0.38 0.12 0 0.4 0.12 0 
0.42 0.12 0 0.44 0.12 0 0.46 0.12 0 
0.48 0.12 0 0.5 0.12 0 0.52 0.12 0 
0.54 0.12 0 0.56 0.12 0 0.58 0.12 0 
0.6 0.12 0 0.62 0.12 0 0.64 0.12 0 
0.66 0.12 0 0.68 0.12 0 0.7 0.12 0 
0.72 0.12 0 0.74 0.12 0 0.76 0.12 0 
0.78 0.12 0 0.8 0.12 0 0.82 0.12 0 
0.84 0.12 0 0.86 0.12 0 0.88 0.12 0 
0.9 0.12 0 0.92 0.12 0 0.94 0.12 0 
0.96 0.12 0 0.98 0.12 0 1 0.12 0 
0 0.14 0 0.02 0.14 0 0.04 0.14 0 
0.06 0.14 0 0.08 0.14 0 0.1 0.14 0 
0.12 0.14 0 0.14 0.14 0 0.16 0.14 0 
0.18 0.14 0 0.2 0.14 0 0.22 0.14 0 
0.24 0.14 0 0.26 0.14 0 0.28 0.14 0 
0.3 0.14 0 0.32 0.14 0 0.34 0.14 0 
0.36 0.14 0 0.38 0.14 0 0.4 0.14 0 
0.42 0.14 0 0.44 0.14 0 0.46 0.14 0 
0.48 0.14 0 0.5 0.14 0 0.52 0.14 0 
0.54 0.14 0 0.56 0.14 0 0.58 0.14 0 
0.6 0.14 0 0.62 0.14 0 0.64 0.14 0 
0.66 0.14 0 0.68 0.14 0 0.7 0.14 0 
0.72 0.14 0 0.74 0.14 0 0.76 0.14 0 
0.78 0.14 0 0.8 0.14 0 0.82 0.14 0 
0.84 0.14 0 0.86 0.14 0 0.88 0.14 0 
0.9 0.14 0 0.92 0.14 0 0.94 0.14 0 
0.96 0.14 0 0.98 0.14 0 1 0.14 0 
0 0.16 0 0.02 0.16 0 0.04 0.16 0 
0.06 0.16 0 0.08 0.16 0 0.1 0.16 0 
0.12 0.16 0 0.14 0.16 0 0.16 0.16 0 
0.18 0.16 0 0.2 0.16 0 0.22 0.16 0 
0.24 0.16 0 0.26 0.16 0 0.28 0.16 0 
0.3 0.16 0 0.32 0.16 0 0.34 0.16 0 
0.36 0.16 0 0.38 0.16 0 0.4 0.16 0 
0.42 0.16 0 0.44 0.16 0 0.46 0.16 0 
0.48 0.16 0 0.5 0.16 0 0.52 0.16 0 
0.54 0.16 0 0.56 0.16 0 0.58 0.16 0 
0.6 0.16 0 0.62 0.16 0 0.64 0.16 0 
0.66 0.16 0 0.68 0.16 0 0.7 0.16 0 
0.72 0.16 0 0.74 0.16 0 0.76 0.16 0 
0.78 0.16 0 0.8 0.16 0 0.82 0.16 0 
0.84 0.16 0 0.86 0.16 0 0.88 0.16 0 
0.9 0.16 0 0.92 0.16 0 0.94 0.16 0 
0.96 0.16 0 0.98 0.16 0 1 0.16 0 
0 0.18 0 0.02 0.18 0 0.04 0.18 0 
0.06 0.18 0 0.08 0.18 0 0.1 0.18 0 
0.12 0.18 0 0.14 0.18 0 0.16 0.18 0 
0.18 0.18 0 0.2 0.18 0 0.22 0.18 0 
0.24 0.18 0 0.26 0.18 0 0.28 0.18 0 
0.3 0.18 0 0.32 0.18 0 0.34 0.18 0 
0.36 0.18 0 0.38 0.18 0 0.4 0.18 0 
0.42 0.18 0 0.44 0.18 0 0.46 0.18 0 
0.48 0.18 0 0.5 0.18 0 0.52 0.18 0 
0.54 0.18 0 0.56 0.18 0 0.58 0.18 0 
0.6 0.18 0 0.62 0.18 0 0.64 0.18 0 
0.66 0.18 0 0.68 0.18 0 0.7 0.18 0 
0.72 0.18 0 0.74 0.18 0 0.76 0.18 0 
0.78 0.18 0 0.8 0.18 0 0.82 0.18 0 
0.84 0.18 0 0.86 0.18 0 0.88 0.18 0 
0.9 0.18 0 0.92 0.18 0 0.94 0.18 0 
0.96 0.18 0 0.98 0.18 0 1 0.18 0 
0 0.2 0 0.02 0.2 0 0.04 0.2 0 
0.06 0.2 0 0.08 0.2 0 0.1 0.2 0 
0.12 0.2 0 0.14 0.2 0 0.16 0.2 0 
0.18 0.2 0 0.2 0.2 0 0.22 0.2 0 
0.24 0.2 0 0.26 0.2 0 0.28 0.2 0 
0.3 0.2 0 0.32 0.2 0 0.34 0.2 0 
0.36 0.2 0 0.38 0.2 0 0.4 0.2 0 
0.42 0.2 0 0.44 0.2 0 0.46 0.2 0 
0.48 0.2 0 0.5 0.2 0 0.52 0.2 0 
0.54 0.2 0 0.56 0.2 0 0.58 0.2 0 
0.6 0.2 0 0.62 0.2 0 0.64 0.2 0 
0.66 0.2 0 0.68 0.2 0 0.7 0.2 0 
0.72 0.2 0 0.74 0.2 0 0.76 0.2 0 
0.78 0.2 0 0.8 0.2 0 0.82 0.2 0 
0.84 0.2 0 0.86 0.2 0 0.88 0.2 0 
0.9 0.2 0 0.92 0.2 0 0.94 0.2 0 
0.96 0.2 0 0.98 0.2 0 1 0.2 0 
0 0.22 0 0.02 0.22 0 0.04 0.22 0 
0.06 0.22 0 0.08 0.22 0 0.1 0.22 0 
0.12 0.22 0 0.14 0.22 0 0.16 0.22 0 
0.18 0.22 0 0.2 0.22 0 0.22 0.22 0 
0.24 0.22 0 0.26 0.22 0 0.28 0.22 0 
0.3 0.22 0 0.32 0.22 0 0.34 0.22 0 
0.36 0.22 0 0.38 0.22 0 0.4 0.22 0 
0.42 0.22 0 0.44 0.22 0 0.46 0.22 0 
0.48 0.22 0 0.5 0.22 0 0.52 0.22 0 
0.54 0.22 0 0.56 0.22 0 0.58 0.22 0 
0.6 0.22 0 0.62 0.22 0 0.64 0.22 0 
0.66 0.22 0 0.68 0.22 0 0.7 0.22 0 
0.72 0.22 0 0.74 0.22 0 0.76 0.22 0 
0.78 0.22 0 0.8 0.22 0 0.82 0.22 0 
0.84 0.22 0 0.86 0.22 0 0.88 0.22 0 
0.9 0.22 0 0.92 0.22 0 0.94 0.22 0 
0.96 0.22 0 0.98 0.22 0 1 0.22 0 
0 0.24 0 0.02 0.24 0 0.04 0.24 0 
0.06 0.24 0 0.08 0.24 0 0.1 0.24 0 
0.12 0.24 0 0.14 0.24 0 0.16 0.24 0 
0.18 0.24 0 0.2 0.24 0 0.22 0.24 0 
0.24 0.24 0 0.26 0.24 0 0.28 0.24 0 
0.3 0.24 0 0.32 0.24 0 0.34 0.24 0 
0.36 0.24 0 0.38 0.24 0 0.4 0.24 0 
0.42 0.24 0 0.44 0.24 0 0.46 0.24 0 
0.48 0.24 0 0.5 0.24 0 0.52 0.24 0 
0.54 0.24 0 0.56 0.24 0 0.58 0.24 0 
0.6 0.24 0 0.62 0.24 0 0.64 0.24 0 
0.66 0.24 0 0.68 0.24 0 0.7 0.24 0 
0.72 0.24 0 0.74 0.24 0 0.76 0.24 0 
0.78 0.24 0 0.8 0.24 0 0.82 0.24 0 
0.84 0.24 0 0.86 0.24 0 0.88 0.24 0 
0.9 0.24 0 0.92 0.24 0 0.94 0.24 0 
0.96 0.24 0 0.98 0.24 0 1 0.24 0 
0 0.26 0 0.02 0.26 0 0.04 0.26 0 
0.06 0.26 0 0.08 0.26 0 0.1 0.26 0 
0.12 0.26 0 0.14 0.26 0 0.16 0.26 0 
0.18 0.26 0 0.2 0.26 0 0.22 0.26 0 
0.24 0.26 0 0.26 0.26 0 0.28 0.26 0 
0.3 0.26 0 0.32 0.26 0 0.34 0.26 0 
0.36 0.26 0 0.38 0.26 0 0.4 0.26 0 
0.42 0.26 0 0.44 0.26 0 0.46 0.26 0 
0.48 0.26 0 0.5 0.26 0 0.52 0.26 0 
0.54 0.26 0 0.56 0.26 0 0.58 0.26 0 
0.6 0.26 0 0.62 0.26 0 0.64 0.26 0 
0.66 0.26 0 0.68 0.26 0 0.7 0.26 0 
0.72 0.26 0 0.74 0.26 0 0.76 0.26 0 
0.78 0.26 0 0.8 0.26 0 0.82 0.26 0 
0.84 0.26 0 0.86 0.26 0 0.88 0.26 0 
0.9 0.26 0 0.92 0.26 0 0.94 0.26 0 
0.96 0.26 0 0.98 0.26 0 1 0.26 0 
0 0.28 0 0.02 0.28 0 0.04 0.28 0 
0.06 0.28 0 0.08 0.28 0 0.1 0.28 0 
0.12 0.28 0 0.14 0.28 0 0.16 0.28 0 
0.18 0.28 0 0.2 0.28 0 0.22 0.28 0 
0.24 0.28 0 0.26 0.28 0 0.28 0.28 0 
0.3 0.28 0 0.32 0.28 0 0.34 0.28 0 
0.36 0.28 0 0.38 0.28 0 0.4 0.28 0 
0.42 0.28 0 0.44 0.28 0 0.46 0.28 0 
0.48 0.28 0 0.5 0.28 0 0.52 0.28 0 
0.54 0.28 0 0.56 0.28 0 0.58 0.28 0 
0.6 0.28 0 0.62 0.28 0 0.64 0.28 0 
0.66 0.28 0 0.68 0.28 0 0.7 0.28 0 
0.72 0.28 0 0.74 0.28 0 0.76 0.28 0 
0.78 0.28 0 0.8 0.28 0 0.82 0.28 0 
0.84 0.28 0 0.86 0.28 0 0.88 0.28 0 
0.9 0.28 0 0.92 0.28 0 0.94 0.28 0 
0.96 0.28 0 0.98 0.28 0 1 0.28 0 
0 0.3 0 0.02 0.3 0 0.04 0.3 0 
0.06 0.3 0 0.08 0.3 0 0.1 0.3 0 
0.12 0.3 0 0.14 0.3 0 0.16 0.3 0 
0.18 0.3 0 0.2 0.3 0 0.22 0.3 0 
0.24 0.3 0 0.26 0.3 0 0.28 0.3 0 
0.3 0.3 0 0.32 0.3 0 0.34 0.3 0 
0.36 0.3 0 0.38 0.3 0 0.4 0.3 0 
0.42 0.3 0 0.44 0.3 0 0.46 0.3 0 
0.48 0.3 0 0.5 0.3 0 0.52 0.3 0 
0.54 0.3 0 0.56 0.3 0 0.58 0.3 0 
0.6 0.3 0 0.62 0.3 0 0.64 0.3 0 
0.66 0.3 0 0.68 0.3 0 0.7 0.3 0 
0.72 0.3 0 0.74 0.3 0 0.76 0.3 0 
0.78 0.3 0 0.8 0.3 0 0.82 0.3 0 
0.84 0.3 0 0.86 0.3 0 0.88 0.3 0 
0.9 0.3 0 0.92 0.3 0 0.94 0.3 0 
0.96 0.3 0 0.98 0.3 0 1 0.3 0 
0 0.32 0 0.02 0.32 0 0.04 0.32 0 
0.06 0.32 0 0.08 0.32 0 0.1 0.32 0 
0.12 0.32 0 0.14 0.32 0 0.16 0.32 0 
0.18 0.32 0 0.2 0.32 0 0.22 0.32 0 
0.24 0.32 0 0.26 0.32 0 0.28 0.32 0 
0.3 0.32 0 0.32 0.32 0 0.34 0.32 0 
0.36 0.32 0 0.38 0.32 0 0.4 0.32 0 
0.42 0.32 0 0.44 0.32 0 0.46 0.32 0 
0.48 0.32 0 0.5 0.32 0 0.52 0.32 0 
0.54 0.32 0 0.56 0.32 0 0.58 0.32 0 
[...]
CELL_DATA 2500
FIELD FieldData 2
pressure 1 2500 double
-0.0056342579178 -0.0056220618518 -0.005649678988 -0.0057203590523 -0.0058246132671 -0.0059516517982 -0.0060957102034 -0.0062564606699 -0.006437402618 
-0.0066427110326 -0.006876378716 -0.0071398530062 -0.0074309111213 -0.007748085533 -0.0080862289324 -0.0084385942057 -0.0087959240337 -0.0091458910643 
-0.0094731251889 -0.0097596904326 -0.0099859097446 -0.010131368556 -0.010175971049 -0.010100960171 -0.0098898996335 -0.0095297001325 -0.0090117430277 
-0.0083331504158 -0.0074982512643 -0.0065202956327 -0.005426977646 -0.0042780674475 -0.0031169772195 -0.0019994574456 -0.00098869700452 -0.0001502790331 
0.00045476979579 0.00077889811647 0.00079817023375 0.00052211436238 2.9501488809e-05 -0.00059778080968 -0.0012601071336 -0.0018612762673 -0.0023361268705 
-0.002670919781 -0.0028780011962 -0.0029783911421 -0.0029939507504 -0.0029527762725 -0.0056464828876 -0.0056384330505 -0.0056690465134 -0.0057354056841 
-0.0058296958738 -0.0059443046072 -0.0060760538596 -0.0062251206045 -0.0063950326581 -0.0065876271603 -0.0068072855163 -0.0070563369002 -0.0073330249322 
-0.0076366576612 -0.0079640976177 -0.008309581411 -0.0086642354272 -0.0090158400539 -0.009349034742 -0.0096458824246 -0.009886675295 -0.010050853843 
-0.010117958809 -0.010068612373 -0.0098855671955 -0.00955481097 -0.0090667123204 -0.0084171579986 -0.0076086039362 -0.0066513995414 -0.0056107367536 
-0.0044991611228 -0.0033694151266 -0.0022791371867 -0.0012913020654 -0.00047046427292 0.0001237856057 0.00044564979407 0.00047354661035 0.00022078188628 
-0.00025669799679 -0.00082632246604 -0.0014307916302 -0.0019733162546 -0.0023919619162 -0.0026792361447 -0.0028532198401 -0.0029385421715 -0.0029555705105 
-0.0029133429481 -0.0056291866136 -0.0056220839628 -0.0056549567016 -0.0057212141787 -0.0058118698355 -0.0059190778751 -0.0060420092347 -0.0061783861246 
-0.0063351744069 -0.0065160578426 -0.0067244680947 -0.0069640646103 -0.0072365006888 -0.007542018286 -0.0078782096788 -0.008239342604 -0.008616059798 
-0.0089954402751 -0.0093613737262 -0.0096951458184 -0.0099761722343 -0.010182846726 -0.010293510381 -0.010287538582 -0.010146504204 -0.0098553487892 
-0.0094034637839 -0.0087854282892 -0.0080005909326 -0.0070999682528 -0.0060862936728 -0.0049971681214 -0.0038822378604 -0.0027986826377 -0.0018091053281 
-0.00097762275786 -0.00036360906813 -1.3136056374e-05 5.1345964202e-05 -0.00015828964122 -0.00058769580203 -0.0011396617866 -0.0017023635355 -0.0022117766766 
-0.0025891764756 -0.0028227223226 -0.0029510503817 -0.0030043297203 -0.003004701967 -0.0029527897828 -0.0055690476953 -0.0055672811759 -0.0056066371714 
-0.0056782159749 -0.0057708399698 -0.0058758414244 -0.0059919653135 -0.0061206586755 -0.0062695106818 -0.0064451911079 -0.0066540797232 -0.0069018182973 
-0.0071919301531 -0.0075250579721 -0.0078982958728 -0.0083047794171 -0.0087336625673 -0.0091704194304 -0.0095973001988 -0.0099939286035 -0.010338054941 
-0.010606491274 -0.010776211685 -0.010825566258 -0.010735523946 -0.010490851034 -0.010081163604 -0.0095019308936 -0.0087627017285 -0.0078972656938 
-0.0069089031169 -0.0058366247196 -0.0047280365302 -0.0036385175079 -0.0026291129112 -0.0017627781288 -0.0010985276145 -0.00068340093833 -0.00054271756059 
-0.00067006564792 -0.0010200947184 -0.0015093852332 -0.002031686309 -0.0025022783934 -0.0028606108635 -0.0030578581918 -0.0031462751792 -0.0031668775309 
-0.0031483834615 -0.0030946983639 -0.0054589064308 -0.0054692820265 -0.0055214158496 -0.0056031492251 -0.0057017662349 -0.0058100694542 -0.0059266944129 
-0.0060574358335 -0.0062119386416 -0.0064005572437 -0.0066326990559 -0.0069156005003 -0.0072530812018 -0.0076448672446 -0.0080862608962 -0.0085681524082 
-0.0090773299612 -0.0095969026506 -0.010106842682 -0.010584683016 -0.011006399342 -0.011347492844 -0.011584204279 -0.01169476869 -0.011660603292 
-0.011467365845 -0.011105834398 -0.010572470277 -0.0098890468024 -0.0090546165107 -0.0080916795096 -0.0070347296064 -0.0059277944952 -0.0048229629133 
-0.0037783305321 -0.0028545985495 -0.0021098331827 -0.0015922340505 -0.0013313156356 -0.0013288372076 -0.0015521816669 -0.0019342889554 -0.0023840959385 
-0.0028074412515 -0.0031219085842 -0.0033185881073 -0.0033878918618 -0.0033920929872 -0.0033656636348 -0.0033202665308 -0.0052964082415 -0.00532668535 
-0.0053963116819 -0.0054911860553 -0.0056030221032 -0.0057219733739 -0.0058514208057 -0.0060009415574 -0.0061833150374 -0.0064116494933 -0.0066969461048 
-0.0070464070956 -0.007462570661 -0.0079429397458 -0.0084800866617 -0.0090620552234 -0.0096728152713 -0.010292820885 -0.010899703204 -0.011469123705 
-0.011975824168 -0.012394805852 -0.012702538693 -0.012878105927 -0.012904239727 -0.012768253398 -0.012462913098 -0.011987360604 -0.011354144169 
-0.010559256821 -0.0096259656934 -0.0085857495992 -0.0074785334341 -0.0063519929946 -0.0052600069894 -0.0042598769078 -0.0034079329171 -0.0027533607512 
-0.0023305504021 -0.0021510356602 -0.0021971144469 -0.0024200959849 -0.0027458481581 -0.0030881465781 -0.0033682181298 -0.0035445200682 -0.0036274223898 
-0.0036426872179 -0.0036260424209 -0.0035973012916 -0.0050865143427 -0.005143734868 -0.0052339379339 -0.0053485179606 -0.0054776863666 -0.0056191120607 
-0.0057793961416 -0.0059710893957 -0.0062091811991 -0.0065077369359 -0.0068772402462 -0.0073232193269 -0.0078456723205 -0.0084391214635 -0.0090930837327 
-0.0097925786876 -0.01051874191 -0.011249553993 -0.011960709473 -0.01262665741 -0.013221739454 -0.013721332176 -0.014102912262 -0.014347003957 
-0.014438026732 -0.014365099054 -0.014122906678 -0.013712817827 -0.013132613937 -0.012382930477 -0.011484179262 -0.010463980058 -0.0093574123897 
-0.0082067610823 -0.007060546389 -0.0059715193012 -0.0049932921196 -0.0041754168251 -0.0035570754455 -0.0031601208756 -0.0029829400336 -0.002997226892 
-0.0031498074904 -0.0033710538964 -0.0035909783855 -0.003762769789 -0.0038637484941 -0.0038993319305 -0.0039089011327 -0.0039023254032 -0.0048474971922 
-0.0049371442996 -0.0050493625308 -0.0051852190918 -0.0053418704609 -0.0055217673907 -0.0057344691413 -0.0059942640605 -0.0063164367107 -0.0067138203567 
-0.0071946769638 -0.0077616401872 -0.0084115150482 -0.0091356667922 -0.0099205115421 -0.010748158827 -0.011597194758 -0.012443592052 -0.013261782675 
-0.014025785028 -0.01471030035 -0.015291703525 -0.015748896063 -0.016064040826 -0.016223231814 -0.016217175636 -0.016041968717 -0.015700043062 
-0.015177229484 -0.014477661513 -0.013618654169 -0.012623494726 -0.011521819521 -0.010349723112 -0.0091493696862 -0.0079678228472 -0.0068547940217 
-0.0058590967657 -0.0050238233925 -0.0043806557367 -0.0039442329865 -0.0037079686017 -0.0036429362963 -0.003701344048 -0.0038256515438 -0.0039624803674 
-0.0040747600714 -0.0041628557177 -0.0042106033312 -0.0042288054177 -0.0046096127175 -0.0047312085374 -0.0048654942865 -0.0050287253542 -0.0052249390809 
-0.0054606340581 -0.0057472423895 -0.0060989901518 -0.0065293451663 -0.0070483160198 -0.0076608034652 -0.0083659402378 -0.0091572090665 -0.010022773665 
-0.010946049111 -0.011906500884 -0.012880589667 -0.013842898773 -0.014767291838 -0.015628008701 -0.016400620949 -0.01706282164 -0.01759507614 
-0.017981178657 -0.018208775435 -0.018269919594 -0.018161700446 -0.017886982506 -0.017423661151 -0.016777897227 -0.015963885102 -0.015000382346 
-0.013911230516 -0.012725778925 -0.011479032466 -0.010211295503 -0.0089670509949 -0.0077928406796 -0.0067340379569 -0.0058306401684 -0.0051125205807 
-0.0045948988512 -0.0042750112033 -0.0041310482865 -0.0041244353456 -0.0042065862508 -0.0043312667491 -0.0044574797456 -0.0045422907595 -0.0045855305147 
-0.004411313408 -0.0045595476907 -0.0047186909642 -0.004916320685 -0.0051638766172 -0.0054709478337 -0.005849259354 -0.0063110764361 -0.0068666544848 
-0.0075222081894 -0.008278751495 -0.0091318088539 -0.010071442302 -0.01108261564 -0.012145911624 -0.013238461495 -0.014335116373 -0.015409658203 
-0.016435933699 -0.017388830028 -0.018245051616 -0.018983740194 -0.019586966198 -0.020040142667 -0.020332417512 -0.020457068057 -0.020411936385 
-0.020199948395 -0.01979560243 -0.019205792495 -0.018441686059 -0.017517549787 -0.016451363859 -0.015265477535 -0.013987200663 -0.012649170586 
-0.011289286514 -0.0099499892669 -0.008676692521 -0.0075152579675 -0.0065085427315 -0.0056921861756 -0.0050899060938 -0.0047086607261 -0.0045342823217 
-0.0045290727013 -0.0046348743024 -0.0047835935805 -0.0049174035333 -0.0049885813467 -0.004294767054 -0.0044659234293 -0.0046501551269 -0.0048878693522 
-0.0051960849795 -0.0055858615863 -0.006067480343 -0.0066500665089 -0.0073399172468 -0.0081390673313 -0.009044603948 -0.010048317327 -0.011136749849 
-0.012291716003 -0.013491135566 -0.014710197725 -0.015922619259 -0.017101831111 -0.018222016409 -0.019258927161 -0.020190532293 -0.020997505745 
-0.021663594326 -0.022175917837 -0.022525195213 -0.02270593563 -0.022716656906 -0.022560140908 -0.022211782267 -0.021678353703 -0.020968204738 
-0.020091375167 -0.019060220431 -0.017890188172 -0.016600707956 -0.015216119896 -0.01376651913 -0.012288330841 -0.01082438053 -0.0094231929621 
-0.0081372157299 -0.0070195993183 -0.0061190662543 -0.0054723520198 -0.0050940236919 -0.0049650510576 -0.0050260382712 -0.0051871572763 -0.0053616687566 
-0.0054599514351 -0.0042993175686 -0.0044872880779 -0.0046967153054 -0.004978347351 -0.0053528315662 -0.0058309883583 -0.0064206223843 -0.0071272021496 
-0.0079528598212 -0.0088955359775 -0.0099483103757 -0.011099096502 -0.01233088222 -0.013622386857 -0.014949146857 -0.016284783383 -0.01760223347 
-0.01887486517 -0.020077370146 -0.021186489013 -0.022181559736 -0.023044905961 -0.023762122563 -0.02432221234 -0.024717617009 -0.024944199137 
-0.025001177125 -0.024891112314 -0.024593730187 -0.024115337969 -0.02346177803 -0.022639342402 -0.021655312846 -0.020518712525 -0.019241317785 
-0.017838951308 -0.016333017942 -0.014752173711 -0.01313392232 -0.011525790274 -0.0099855348378 -0.0085795629098 -0.0073783952019 -0.0064477282619 
-0.0058338859248 -0.0055443756 -0.0055301907697 -0.0056875950609 -0.0058913452341 -0.0060168759891 -0.0044522034436 -0.004651477635 -0.0048857109508 
-0.0052127623768 -0.0056548133804 -0.0062213789894 -0.006917436073 -0.007744772266 -0.0087015991271 -0.0097818017079 -0.010974341796 -0.012263200673 
-0.013627811813 -0.015044008212 -0.016485249388 -0.017923870353 -0.019332265291 -0.020683869004 -0.021953988793 -0.02312046382 -0.024164132816 
-0.025069177866 -0.025823257123 -0.026417467274 -0.026846185491 -0.02710676383 -0.027199204909 -0.027125905692 -0.026873130382 -0.026446744432 
-0.025850494261 -0.025087598657 -0.024161092728 -0.023074426864 -0.021832423396 -0.020442686033 -0.018917545003 -0.017276548479 -0.01554937076 
-0.013778793383 -0.012023086882 -0.010356635881 -0.0088670225936 -0.007646180346 -0.006773184618 -0.0062880433132 -0.0061621499985 -0.0062854647091 
-0.0064983321154 -0.0066680857508 -0.0047685931674 -0.0049744089038 -0.0052322439533 -0.005603552546 -0.0061104450934 -0.0067607211953 -0.0075566123995 
-0.0084966079646 -0.0095751980324 -0.010782194403 -0.01210242939 -0.013515968054 -0.014998885665 -0.016524417743 -0.018064198781 -0.019589489059 
-0.021072243434 -0.022486056162 -0.023806962071 -0.025014025501 -0.026089805083 -0.027020558582 -0.027796219913 -0.028410201364 -0.028858956994 
-0.029141452065 -0.029258604055 -0.029212702742 -0.028997556414 -0.028618706266 -0.028078286496 -0.0273772449 -0.026515428602 -0.025491915311 
-0.024305721688 -0.022957087977 -0.02144953088 -0.019792804242 -0.018006790124 -0.016126088254 -0.014204622767 -0.012318900243 -0.010567639421 
-0.0090645076252 -0.0079201932559 -0.0072114292537 -0.0069408974496 -0.0070086122574 -0.0072372464782 -0.0074381454538 -0.005251080302 -0.0054593640562 
-0.0057384701287 -0.00615040802 -0.0067162828871 -0.0074421492869 -0.0083279062179 -0.00936908081 -0.010556538082 -0.011876082548 -0.013308502108 
-0.014830182875 -0.016414165301 -0.018031362882 -0.019651805186 -0.021245786144 -0.022784912908 -0.024243059874 -0.025597106545 -0.02682756797 
-0.027918932243 -0.028859720922 -0.02964233833 -0.03026259744 -0.030719105324 -0.031012551388 -0.031144858611 -0.031117917055 -0.030933617508 
-0.030596778625 -0.030108477386 -0.029468297688 -0.028674099829 -0.027722003337 -0.026606738489 -0.025322587743 -0.023865210551 -0.0222346785 
-0.020439947968 -0.018504720997 -0.01647413404 -0.014420877188 -0.012448139718 -0.010685341714 -0.0092715226591 -0.0083219220581 -0.0078788883238 
-0.0078652192564 -0.0080902993459 -0.008326628276 -0.0058907358052 -0.0060977956663 -0.006394679718 -0.0068417970308 -0.0074587508526 -0.0082500848383 
-0.0092137304511 -0.010342423837 -0.011623535259 -0.013039031987 -0.014565965371 -0.016177435814 -0.017843796728 -0.019533903854 -0.021216333135 
-0.022860523216 -0.024437876183 -0.0259226653 -0.027292852331 -0.028530608282 -0.029622513726 -0.030559525924 -0.031336538753 -0.031951756756 
-0.032405931465 -0.032701448859 -0.032841509747 -0.032826292181 -0.032667007028 -0.032366026512 -0.031924208469 -0.031340684971 -0.030612502559 
-0.029734321486 -0.028698329642 -0.027494656859 -0.026112705326 -0.024543868854 -0.022786088337 -0.020850492541 -0.018769842016 -0.016607511175 
-0.014464261433 -0.012478173084 -0.010811296524 -0.009616237075 -0.0089802403081 -0.0088606089209 -0.0090651522916 -0.0093338800732 -0.0066690397239 
-0.0068712666541 -0.007181588774 -0.0076573897632 -0.0083165721402 -0.0091623834998 -0.010190931384 -0.011392293817 -0.012750567508 -0.014244251342 
-0.01584712962 -0.017529464414 -0.019259260019 -0.021003539947 -0.022729582095 -0.02440614835 -0.026004577637 -0.02749979291 -0.028871048607 
-0.030102321645 -0.031182454934 -0.032104821509 -0.032866736858 -0.033468682238 -0.033913304051 -0.034204482171 -0.034346406032 -0.034339863658 
-0.034199800389 -0.03392816878 -0.033525848692 -0.032992168093 -0.032324378023 -0.031517047037 -0.030561539485 -0.029445860626 -0.028155280741 
-0.026674341225 -0.024990971878 -0.02310332742 -0.021029445103 -0.01881880065 -0.016563125556 -0.014401461235 -0.012511814073 -0.01108024308 
-0.010240906215 -0.0099952960518 -0.010162918266 -0.010456166474 -0.0075602685043 -0.007754109502 -0.0080731225309 -0.0085708089577 -0.0092632678988 
-0.010152431622 -0.011232613916 -0.0124914256 -0.013910067471 -0.015464090929 -0.017124553549 -0.018859305375 -0.020634314291 -0.022414996235 
-0.024167555633 -0.025860266321 -0.027464664858 -0.028956553035 -0.030316626842 -0.031530847359 -0.03259029 -0.033490657339 -0.034231539115 
-0.034815369125 -0.03524640768 -0.035529730165 -0.03567026541 -0.035670156127 -0.035544858826 -0.03529642753 -0.034926104054 -0.034433907214 
-0.033818003493 -0.033073935576 -0.032193781862 -0.031165426547 -0.029972364203 -0.028594733466 -0.02701250155 -0.025211791732 -0.023195030385 
-0.020994542964 -0.018687288287 -0.016405578876 -0.014335189229 -0.012689374161 -0.011648083159 -0.011264056837 -0.011382602368 -0.011698577619 
-0.0085341425888 -0.0087162339664 -0.0090392003118 -0.0095522270916 -0.010269376082 -0.011191080037 -0.012309902579 -0.013611286091 -0.015074049594 
-0.016671388085 -0.018372137461 -0.02014212949 -0.021945603152 -0.023746643857 -0.025510634546 -0.02720563373 -0.028803635374 -0.030281475425 
-0.031621472553 -0.032811550381 -0.033844928215 -0.034719492679 -0.035436766632 -0.036000808505 -0.036417091921 -0.036691453446 -0.03682933831 
-0.036834428927 -0.036720483874 -0.036489859501 -0.036144341479 -0.035684836653 -0.035110828656 -0.034419564943 -0.033604984268 -0.032656544433 
-0.0315582747 -0.030288679839 -0.028822556694 -0.02713615606 -0.025216986635 -0.023078623345 -0.020778857537 -0.018436224618 -0.016235617103 
-0.014409408824 -0.013179129079 -0.012652080439 -0.012710806096 -0.013040154914 -0.0095584363672 -0.0097257464348 -0.010048207366 -0.010570510462 
-0.011304321443 -0.012248360282 -0.013393545042 -0.014723561768 -0.016215419478 -0.017840502384 -0.019565878659 -0.021355744387 -0.02317294156 
-0.024980542055 -0.026743404596 -0.028429667666 -0.030011953815 -0.031468309548 -0.032782675101 -0.033944847096 -0.034950061031 -0.035798065595 
-0.036491980438 -0.037037068739 -0.037439533996 -0.037705628606 -0.037840995926 -0.037850697411 -0.03774560652 -0.037528384323 -0.037201306625 
-0.036766200351 -0.036224003286 -0.035573979742 -0.034812615635 -0.033932189739 -0.032919193573 -0.03175312883 -0.030406788267 -0.028849679365 
-0.027056555911 -0.025022420342 -0.022783247255 -0.020437980287 -0.018162206245 -0.016198152272 -0.014801954334 -0.014134995824 -0.014126062465 
-0.014460188192 -0.010601337515 -0.010751097568 -0.011068881223 -0.011594875259 -0.012337957538 -0.013294944377 -0.014455290372 -0.015801381546 
-0.017308937358 -0.018948008905 -0.020684324174 -0.02248082376 -0.024299322835 -0.026102219141 -0.027854177012 -0.029523616353 -0.031083961578 
-0.032514496214 -0.03380068999 -0.034934101696 -0.035911687492 -0.036734728301 -0.037407550015 -0.037936161118 -0.038327114598 -0.038586694107 
-0.038720414456 -0.038734502389 -0.038636484725 -0.038429182839 -0.03811528189 -0.037697410717 -0.037177844658 -0.036557893254 -0.035836851282 
-0.03501047058 -0.034068995804 -0.032995115436 -0.031762707088 -0.030338150666 -0.028686799322 -0.026787010845 -0.024652244386 -0.022357731365 
-0.020062231415 -0.018008137885 -0.016477153343 -0.0156808392 -0.0156002023 -0.015931440582 -0.011633461193 -0.011762432578 -0.012071559549 
-0.012596118406 -0.013341794174 -0.014303344437 -0.015468982787 -0.016820195673 -0.018331858409 -0.019973119415 -0.021708774216 -0.023500914701 
-0.025310718642 -0.027100271113 -0.028834286885 -0.030481653735 -0.032016655254 -0.033419723605 -0.034677757357 -0.035783801322 -0.036736215418 
-0.037537458914 -0.038192643792 -0.03870813945 -0.03909051144 -0.03934575603 -0.039479005376 -0.039497281326 -0.039404967454 -0.039204925445 
-0.038900055792 -0.038493585765 -0.037988964677 -0.037389351737 -0.036696707269 -0.035910361282 -0.035024962816 -0.034027857384 -0.032896559117 
-0.031597967806 -0.030092135232 -0.028344135148 -0.026346145298 -0.024147574652 -0.021884340638 -0.019789708317 -0.018160684295 -0.017252214307 
-0.01710007069 -0.01742214922 -0.012630040391 -0.012731399103 -0.013028891022 -0.013547550496 -0.014289988761 -0.015248855584 -0.016411338213 
-0.017758351262 -0.019264310726 -0.020897864054 -0.022623301534 -0.024402293116 -0.026195770766 -0.02796580297 -0.029677378879 -0.031299944893 
-0.032808579239 -0.034184773362 -0.035416591485 -0.03649826467 -0.037429216558 -0.038212685894 -0.038854191461 -0.039360196632 -0.039737015934 
-0.039990160404 -0.040124114682 -0.04014593177 -0.040058286618 -0.039863472293 -0.03956441546 -0.039164842639 -0.038669135124 -0.038081962973 
-0.037407579027 -0.036648618886 -0.035804159151 -0.034866889026 -0.033819777121 -0.032633398418 -0.03126673122 -0.029675909637 -0.027834776175 
-0.025766903255 -0.023581299637 -0.021493943837 -0.019806551803 -0.018808473707 -0.018589323273 -0.018897736126 -0.013563487017 -0.013641226303 
-0.013916904438 -0.014425871319 -0.015160183806 -0.016110225752 -0.017262454337 -0.018597423376 -0.020089452322 -0.021707123484 -0.023414657638 
-0.025173722285 -0.026945355407 -0.028691885207 -0.030378699485 -0.031975798439 -0.033458994705 -0.034810589827 -0.036019534601 -0.037080899089 
-0.037994769661 -0.038764796648 -0.039396649779 -0.039896639819 -0.040270650999 -0.040523694538 -0.040659780677 -0.040682932558 -0.040599686258 
-0.040408559406 -0.04011286539 -0.039716764538 -0.039225369588 -0.038644519125 -0.037980280039 -0.037238050854 -0.036420945503 -0.035527074702 
-0.034545760455 -0.033453533022 -0.032212157895 -0.030773569314 -0.029097472311 -0.027183539589 -0.025111993806 -0.023075107092 -0.021369223982 
-0.020307748616 -0.020030038813 -0.020322199424 -0.014410230967 -0.014475513845 -0.014724455917 -0.01521169876 -0.015934180002 -0.016870074777 