# vtk DataFile Version 4.1
vtk output
ASCII
DATASET STRUCTURED_GRID
DIMENSIONS 51 51 1
POINTS 2601 float
0 0 0 0.02 0 0 0.04 0 0 
0.06 0 0 0.08 0 0 0.1 0 0 
0.12 0 0 0.14 0 0 0.16 0 0 
0.18 0 0 0.2 0 0 0.22 0 0 
0.24 0 0 0.26 0 0 0.28 0 0 
0.3 0 0 0.32 0 0 0.34 0 0 
0.36 0 0 0.38 0 0 0.4 0 0 
0.42 0 0 0.44 0 0 0.46 0 0 
0.48 0 0 0.5 0 0 0.52 0 0 
0.54 0 0 0.56 0 0 0.58 0 0 
0.6 0 0 0.62 0 0 0.64 0 0 
0.66 0 0 0.68 0 0 0.7 0 0 
0.72 0 0 0.74 0 0 0.76 0 0 
0.78 0 0 0.8 0 0 0.82 0 0 
0.84 0 0 0.86 0 0 0.88 0 0 
0.9 0 0 0.92 0 0 0.94 0 0 
0.96 0 0 0.98 0 0 1 0 0 
0 0.02 0 0.02 0.02 0 0.04 0.02 0 
0.06 0.02 0 0.08 0.02 0 0.1 0.02 0 
0.12 0.02 0 0.14 0.02 0 0.16 0.02 0 
0.18 0.02 0 0.2 0.02 0 0.22 0.02 0 
0.24 0.02 0 0.26 0.02 0 0.28 0.02 0 
0.3 0.02 0 0.32 0.02 0 0.34 0.02 0 
0.36 0.02 0 0.38 0.02 0 0.4 0.02 0 
0.42 0.02 0 0.44 0.02 0 0.46 0.02 0 
0.48 0.02 0 0.5 0.02 0 0.52 0.02 0 
0.54 0.02 0 0.56 0.02 0 0.58 0.02 0 
0.6 0.02 0 0.62 0.02 0 0.64 0.02 0 
0.66 0.02 0 0.68 0.02 0 0.7 0.02 0 
0.72 0.02 0 0.74 0.02 0 0.76 0.02 0 
0.78 0.02 0 0.8 0.02 0 0.82 0.02 0 
0.84 0.02 0 0.86 0.02 0 0.88 0.02 0 
0.9 0.02 0 0.92 0.02 0 0.94 0.02 0 
0.96 0.02 0 0.98 0.02 0 1 0.02 0 
0 0.04 0 0.02 0.04 0 0.04 0.04 0 
0.06 0.04 0 0.08 0.04 0 0.1 0.04 0 
0.12 0.04 0 0.14 0.04 0 0.16 0.04 0 
0.18 0.04 0 0.2 0.04 0 0.22 0.04 0 
0.24 0.04 0 0.26 0.04 0 0.28 0.04 0 
0.3 0.04 0 0.32 0.04 0 0.34 0.04 0 
0.36 0.04 0 0.38 0.04 0 0.4 0.04 0 
0.42 0.04 0 0.44 0.04 0 0.46 0.04 0 
0.48 0.04 0 0.5 0.04 0 0.52 0.04 0 
0.54 0.04 0 0.56 0.04 0 0.58 0.04 0 
0.6 0.04 0 0.62 0.04 0 0.64 0.04 0 
0.66 0.04 0 0.68 0.04 0 0.7 0.04 0 
0.72 0.04 0 0.74 0.04 0 0.76 0.04 0 
0.78 0.04 0 0.8 0.04 0 0.82 0.04 0 
0.84 0.04 0 0.86 0.04 0 0.88 0.04 0 
0.9 0.04 0 0.92 0.04 0 0.94 0.04 0 
0.96 0.04 0 0.98 0.04 0 1 0.04 0 
0 0.06 0 0.02 0.06 0 0.04 0.06 0 
0.06 0.06 0 0.08 0.06 0 0.1 0.06 0 
0.12 0.06 0 0.14 0.06 0 0.16 0.06 0 
0.18 0.06 0 0.2 0.06 0 0.22 0.06 0 
0.24 0.06 0 0.26 0.06 0 0.28 0.06 0 
0.3 0.06 0 0.32 0.06 0 0.34 0.06 0 
0.36 0.06 0 0.38 0.06 0 0.4 0.06 0 
0.42 0.06 0 0.44 0.06 0 0.46 0.06 0 
0.48 0.06 0 0.5 0.06 0 0.52 0.06 0 
0.54 0.06 0 0.56 0.06 0 0.58 0.06 0 
0.6 0.06 0 0.62 0.06 0 0.64 0.06 0 
0.66 0.06 0 0.68 0.06 0 0.7 0.06 0 
0.72 0.06 0 0.74 0.06 0 0.76 0.06 0 
0.78 0.06 0 0.8 0.06 0 0.82 0.06 0 
0.84 0.06 0 0.86 0.06 0 0.88 0.06 0 
0.9 0.06 0 0.92 0.06 0 0.94 0.06 0 
0.96 0.06 0 0.98 0.06 0 1 0.06 0 
0 0.08 0 0.02 0.08 0 0.04 0.08 0 
0.06 0.08 0 0.08 0.08 0 0.1 0.08 0 
0.12 0.08 0 0.14 0.08 0 0.16 0.08 0 
0.18 0.08 0 0.2 0.08 0 0.22 0.08 0 
0.24 0.08 0 0.26 0.08 0 0.28 0.08 0 
0.3 0.08 0 0.32 0.08 0 0.34 0.08 0 
0.36 0.08 0 0.38 0.08 0 0.4 0.08 0 
0.42 0.08 0 0.44 0.08 0 0.46 0.08 0 
0.48 0.08 0 0.5 0.08 0 0.52 0.08 0 
0.54 0.08 0 0.56 0.08 0 0.58 0.08 0 
0.6 0.08 0 0.62 0.08 0 0.64 0.08 0 
0.66 0.08 0 0.68 0.08 0 0.7 0.08 0 
0.72 0.08 0 0.74 0.08 0 0.76 0.08 0 
0.78 0.08 0 0.8 0.08 0 0.82 0.08 0 
0.84 0.08 0 0.86 0.08 0 0.88 0.08 0 
0.9 0.08 0 0.92 0.08 0 0.94 0.08 0 
0.96 0.08 0 0.98 0.08 0 1 0.08 0 
0 0.1 0 0.02 0.1 0 0.04 0.1 0 
0.06 0.1 0 0.08 0.1 0 0.1 0.1 0 
0.12 0.1 0 0.14 0.1 0 0.16 0.1 0 
0.18 0.1 0 0.2 0.1 0 0.22 0.1 0 
0.24 0.1 0 0.26 0.1 0 0.28 0.1 0 
0.3 0.1 0 0.32 0.1 0 0.34 0.1 0 
0.36 0.1 0 0.38 0.1 0 0.4 0.1 0 
0.42 0.1 0 0.44 0.1 0 0.46 0.1 0 
0.48 0.1 0 0.5 0.1 0 0.52 0.1 0 
0.54 0.1 0 0.56 0.1 0 0.58 0.1 0 
0.6 0.1 0 0.62 0.1 0 0.64 0.1 0 
0.66 0.1 0 0.68 0.1 0 0.7 0.1 0 
0.72 0.1 0 0.74 0.1 0 0.76 0.1 0 
0.78 0.1 0 0.8 0.1 0 0.82 0.1 0 
0.84 0.1 0 0.86 0.1 0 0.88 0.1 0 
0.9 0.1 0 0.92 0.1 0 0.94 0.1 0 
0.96 0.1 0 0.98 0.1 0 1 0.1 0 
0 0.12 0 0.02 0.12 0 0.04 0.12 0 
0.06 0.12 0 0.08 0.12 0 0.1 0.12 0 
0.12 0.12 0 0.14 0.12 0 0.16 0.12 0 
0.18 0.12 0 0.2 0.12 0 0.22 0.12 0 
0.24 0.12 0 0.26 0.12 0 0.28 0.12 0 
0.3 0.12 0 0.32 0.12 0 0.34 0.12 0 
0.36 0.12 0 0.38 0.12 0 0.4 0.12 0 
0.42 0.12 0 0.44 0.12 0 0.46 0.12 0 
0.48 0.12 0 0.5 0.12 0 0.52 0.12 0 
0.54 0.12 0 0.56 0.12 0 0.58 0.12 0 
0.6 0.12 0 0.62 0.12 0 0.64 0.12 0 
0.66 0.12 0 0.68 0.12 0 0.7 0.12 0 
0.72 0.12 0 0.74 0.12 0 0.76 0.12 0 
0.78 0.12 0 0.8 0.12 0 0.82 0.12 0 
0.84 0.12 0 0.86 0.12 0 0.88 0.12 0 
0.9 0.12 0 0.92 0.12 0 0.94 0.12 0 
0.96 0.12 0 0.98 0.12 0 1 0.12 0 
0 0.14 0 0.02 0.14 0 0.04 0.14 0 
0.06 0.14 0 0.08 0.14 0 0.1 0.14 0 
0.12 0.14 0 0.14 0.14 0 0.16 0.14 0 
0.18 0.14 0 0.2 0.14 0 0.22 0.14 0 
0.24 0.14 0 0.26 0.14 0 0.28 0.14 0 
0.3 0.14 0 0.32 0.14 0 0.34 0.14 0 
0.36 0.14 0 0.38 0.14 0 0.4 0.14 0 
0.42 0.14 0 0.44 0.14 0 0.46 0.14 0 
0.48 0.14 0 0.5 0.14 0 0.52 0.14 0 
0.54 0.14 0 0.56 0.14 0 0.58 0.14 0 
0.6 0.14 0 0.62 0.14 0 0.64 0.14 0 
0.66 0.14 0 0.68 0.14 0 0.7 0.14 0 
0.72 0.14 0 0.74 0.14 0 0.76 0.14 0 
0.78 0.14 0 0.8 0.14 0 0.82 0.14 0 
0.84 0.14 0 0.86 0.14 0 0.88 0.14 0 
0.9 0.14 0 0.92 0.14 0 0.94 0.14 0 
0.96 0.14 0 0.98 0.14 0 1 0.14 0 
0 0.16 0 0.02 0.16 0 0.04 0.16 0 
0.06 0.16 0 0.08 0.16 0 0.1 0.16 0 
0.12 0.16 0 0.14 0.16 0 0.16 0.16 0 
0.18 0.16 0 0.2 0.16 0 0.22 0.16 0 
0.24 0.16 0 0.26 0.16 0 0.28 0.16 0 
0.3 0.16 0 0.32 0.16 0 0.34 0.16 0 
0.36 0.16 0 0.38 0.16 0 0.4 0.16 0 
0.42 0.16 0 0.44 0.16 0 0.46 0.16 0 
0.48 0.16 0 0.5 0.16 0 0.52 0.16 0 
0.54 0.16 0 0.56 0.16 0 0.58 0.16 0 
0.6 0.16 0 0.62 0.16 0 0.64 0.16 0 
0.66 0.16 0 0.68 0.16 0 0.7 0.16 0 
0.72 0.16 0 0.74 0.16 0 0.76 0.16 0 
0.78 0.16 0 0.8 0.16 0 0.82 0.16 0 
0.84 0.16 0 0.86 0.16 0 0.88 0.16 0 
0.9 0.16 0 0.92 0.16 0 0.94 0.16 0 
0.96 0.16 0 0.98 0.16 0 1 0.16 0 
0 0.18 0 0.02 0.18 0 0.04 0.18 0 
0.06 0.18 0 0.08 0.18 0 0.1 0.18 0 
0.12 0.18 0 0.14 0.18 0 0.16 0.18 0 
0.18 0.18 0 0.2 0.18 0 0.22 0.18 0 
0.24 0.18 0 0.26 0.18 0 0.28 0.18 0 
0.3 0.18 0 0.32 0.18 0 0.34 0.18 0 
0.36 0.18 0 0.38 0.18 0 0.4 0.18 0 
0.42 0.18 0 0.44 0.18 0 0.46 0.18 0 
0.48 0.18 0 0.5 0.18 0 0.52 0.18 0 
0.54 0.18 0 0.56 0.18 0 0.58 0.18 0 
0.6 0.18 0 0.62 0.18 0 0.64 0.18 0 
0.66 0.18 0 0.68 0.18 0 0.7 0.18 0 
0.72 0.18 0 0.74 0.18 0 0.76 0.18 0 
0.78 0.18 0 0.8 0.18 0 0.82 0.18 0 
0.84 0.18 0 0.86 0.18 0 0.88 0.18 0 
0.9 0.18 0 0.92 0.18 0 0.94 0.18 0 
0.96 0.18 0 0.98 0.18 0 1 0.18 0 
0 0.2 0 0.02 0.2 0 0.04 0.2 0 
0.06 0.2 0 0.08 0.2 0 0.1 0.2 0 
0.12 0.2 0 0.14 0.2 0 0.16 0.2 0 
0.18 0.2 0 0.2 0.2 0 0.22 0.2 0 
0.24 0.2 0 0.26 0.2 0 0.28 0.2 0 
0.3 0.2 0 0.32 0.2 0 0.34 0.2 0 
0.36 0.2 0 0.38 0.2 0 0.4 0.2 0 
0.42 0.2 0 0.44 0.2 0 0.46 0.2 0 
0.48 0.2 0 0.5 0.2 0 0.52 0.2 0 
0.54 0.2 0 0.56 0.2 0 0.58 0.2 0 
0.6 0.2 0 0.62 0.2 0 0.64 0.2 0 
0.66 0.2 0 0.68 0.2 0 0.7 0.2 0 
0.72 0.2 0 0.74 0.2 0 0.76 0.2 0 
0.78 0.2 0 0.8 0.2 0 0.82 0.2 0 
0.84 0.2 0 0.86 0.2 0 0.88 0.2 0 
0.9 0.2 0 0.92 0.2 0 0.94 0.2 0 
0.96 0.2 0 0.98 0.2 0 1 0.2 0 
0 0.22 0 0.02 0.22 0 0.04 0.22 0 
0.06 0.22 0 0.08 0.22 0 0.1 0.22 0 
0.12 0.22 0 0.14 0.22 0 0.16 0.22 0 
0.18 0.22 0 0.2 0.22 0 0.22 0.22 0 
0.24 0.22 0 0.26 0.22 0 0.28 0.22 0 
0.3 0.22 0 0.32 0.22 0 0.34 0.22 0 
0.36 0.22 0 0.38 0.22 0 0.4 0.22 0 
0.42 0.22 0 0.44 0.22 0 0.46 0.22 0 
0.48 0.22 0 0.5 0.22 0 0.52 0.22 0 
0.54 0.22 0 0.56 0.22 0 0.58 0.22 0 
0.6 0.22 0 0.62 0.22 0 0.64 0.22 0 
0.66 0.22 0 0.68 0.22 0 0.7 0.22 0 
0.72 0.22 0 0.74 0.22 0 0.76 0.22 0 
0.78 0.22 0 0.8 0.22 0 0.82 0.22 0 
0.84 0.22 0 0.86 0.22 0 0.88 0.22 0 
0.9 0.22 0 0.92 0.22 0 0.94 0.22 0 
0.96 0.22 0 0.98 0.22 0 1 0.22 0 
0 0.24 0 0.02 0.24 0 0.04 0.24 0 
0.06 0.24 0 0.08 0.24 0 0.1 0.24 0 
0.12 0.24 0 0.14 0.24 0 0.16 0.24 0 
0.18 0.24 0 0.2 0.24 0 0.22 0.24 0 
0.24 0.24 0 0.26 0.24 0 0.28 0.24 0 
0.3 0.24 0 0.32 0.24 0 0.34 0.24 0 
0.36 0.24 0 0.38 0.24 0 0.4 0.24 0 
0.42 0.24 0 0.44 0.24 0 0.46 0.24 0 
0.48 0.24 0 0.5 0.24 0 0.52 0.24 0 
0.54 0.24 0 0.56 0.24 0 0.58 0.24 0 
0.6 0.24 0 0.62 0.24 0 0.64 0.24 0 
0.66 0.24 0 0.68 0.24 0 0.7 0.24 0 
0.72 0.24 0 0.74 0.24 0 0.76 0.24 0 
0.78 0.24 0 0.8 0.24 0 0.82 0.24 0 
0.84 0.24 0 0.86 0.24 0 0.88 0.24 0 
0.9 0.24 0 0.92 0.24 0 0.94 0.24 0 
0.96 0.24 0 0.98 0.24 0 1 0.24 0 
0 0.26 0 0.02 0.26 0 0.04 0.26 0 
0.06 0.26 0 0.08 0.26 0 0.1 0.26 0 
0.12 0.26 0 0.14 0.26 0 0.16 0.26 0 
0.18 0.26 0 0.2 0.26 0 0.22 0.26 0 
0.24 0.26 0 0.26 0.26 0 0.28 0.26 0 
0.3 0.26 0 0.32 0.26 0 0.34 0.26 0 
0.36 0.26 0 0.38 0.26 0 0.4 0.26 0 
0.42 0.26 0 0.44 0.26 0 0.46 0.26 0 
0.48 0.26 0 0.5 0.26 0 0.52 0.26 0 
0.54 0.26 0 0.56 0.26 0 0.58 0.26 0 
0.6 0.26 0 0.62 0.26 0 0.64 0.26 0 
0.66 0.26 0 0.68 0.26 0 0.7 0.26 0 
0.72 0.26 0 0.74 0.26 0 0.76 0.26 0 
0.78 0.26 0 0.8 0.26 0 0.82 0.26 0 
0.84 0.26 0 0.86 0.26 0 0.88 0.26 0 
0.9 0.26 0 0.92 0.26 0 0.94 0.26 0 
0.96 0.26 0 0.98 0.26 0 1 0.26 0 
0 0.28 0 0.02 0.28 0 0.04 0.28 0 
0.06 0.28 0 0.08 0.28 0 0.1 0.28 0 
0.12 0.28 0 0.14 0.28 0 0.16 0.28 0 
0.18 0.28 0 0.2 0.28 0 0.22 0.28 0 
0.24 0.28 0 0.26 0.28 0 0.28 0.28 0 
0.3 0.28 0 0.32 0.28 0 0.34 0.28 0 
0.36 0.28 0 0.38 0.28 0 0.4 0.28 0 
0.42 0.28 0 0.44 0.28 0 0.46 0.28 0 
0.48 0.28 0 0.5 0.28 0 0.52 0.28 0 
0.54 0.28 0 0.56 0.28 0 0.58 0.28 0 
0.6 0.28 0 0.62 0.28 0 0.64 0.28 0 
0.66 0.28 0 0.68 0.28 0 0.7 0.28 0 
0.72 0.28 0 0.74 0.28 0 0.76 0.28 0 
0.78 0.28 0 0.8 0.28 0 0.82 0.28 0 
0.84 0.28 0 0.86 0.28 0 0.88 0.28 0 
0.9 0.28 0 0.92 0.28 0 0.94 0.28 0 
0.96 0.28 0 0.98 0.28 0 1 0.28 0 
0 0.3 0 0.02 0.3 0 0.04 0.3 0 
0.06 0.3 0 0.08 0.3 0 0.1 0.3 0 
0.12 0.3 0 0.14 0.3 0 0.16 0.3 0 
0.18 0.3 0 0.2 0.3 0 0.22 0.3 0 
0.24 0.3 0 0.26 0.3 0 0.28 0.3 0 
0.3 0.3 0 0.32 0.3 0 0.34 0.3 0 
0.36 0.3 0 0.38 0.3 0 0.4 0.3 0 
0.42 0.3 0 0.44 0.3 0 0.46 0.3 0 
0.48 0.3 0 0.5 0.3 0 0.52 0.3 0 
0.54 0.3 0 0.56 0.3 0 0.58 0.3 0 
0.6 0.3 0 0.62 0.3 0 0.64 0.3 0 
0.66 0.3 0 0.68 0.3 0 0.7 0.3 0 
0.72 0.3 0 0.74 0.3 0 0.76 0.3 0 
0.78 0.3 0 0.8 0.3 0 0.82 0.3 0 
0.84 0.3 0 0.86 0.3 0 0.88 0.3 0 
0.9 0.3 0 0.92 0.3 0 0.94 0.3 0 
0.96 0.3 0 0.98 0.3 0 1 0.3 0 
0 0.32 0 0.02 0.32 0 0.04 0.32 0 
0.06 0.32 0 0.08 0.32 0 0.1 0.32 0 
0.12 0.32 0 0.14 0.32 0 0.16 0.32 0 
0.18 0.32 0 0.2 0.32 0 0.22 0.32 0 
0.24 0.32 0 0.26 0.32 0 0.28 0.32 0 
0.3 0.32 0 0.32 0.32 0 0.34 0.32 0 
0.36 0.32 0 0.38 0.32 0 0.4 0.32 0 
0.42 0.32 0 0.44 0.32 0 0.46 0.32 0 
0.48 0.32 0 0.5 0.32 0 0.52 0.32 0 
0.54 0.32 0 0.56 0.32 0 0.58 0.32 0 
[...]
CELL_DATA 2500
FIELD FieldData 2
pressure 1 2500 double
-0.005632593211 -0.0056191942564 -0.005642438499 -0.0057079461742 -0.0058090648204 -0.0059368146426 -0.0060853277125 -0.0062523574021 -0.0064387331585 
-0.0066466151108 -0.0068795258395 -0.0071402046772 -0.0074285177887 -0.0077448946433 -0.008085053736 -0.0084417268796 -0.0088042737438 -0.0091588644436 
-0.0094891782202 -0.0097771380371 -0.010003556932 -0.010148726682 -0.010193056272 -0.01011790266 -0.009906616976 -0.0095457626082 -0.0090264354831 
-0.0083456370384 -0.0075077418541 -0.0065261403786 -0.0054289375696 -0.0042760761086 -0.0031111830178 -0.0019902338803 -0.00097665692596 -0.00013628121562 
0.00046963712 0.00079337221115 0.00081091361444 0.00053186761009 3.5733628047e-05 -0.00059537523185 -0.001261265875 -0.0018652986579 -0.0023420845369 
-0.0026780016123 -0.0028855926487 -0.0029860870874 -0.0030015081625 -0.0029600832728 -0.0056439907056 -0.0056315062905 -0.0056573348166 -0.0057211056552 
-0.005816382561 -0.0059351245995 -0.006072183423 -0.0062253932728 -0.0063966896164 -0.0065879525155 -0.0068048421754 -0.0070517662285 -0.0073283883834 
-0.007634426675 -0.0079660275276 -0.0083161260601 -0.0086746582795 -0.0090288225367 -0.0093633738204 -0.0096609155713 -0.0099022977352 -0.01006722787 
-0.01013516133 -0.01008641523 -0.0099033991006 -0.0095718790995 -0.0090821687892 -0.0084302232889 -0.0076186258348 -0.0066578740587 -0.0056135863549 
-0.0044982420873 -0.0033648248514 -0.0022712097504 -0.0012806239577 -0.00045787786383 0.00013720803158 0.00045866983069 0.00048487428169 0.00022925514407 
-0.00025187020824 -0.00082486071104 -0.0014326970082 -0.0019778112749 -0.0023981455316 -0.0026863086585 -0.002860635111 -0.0029459887882 -0.002962888624 
-0.0029204060131 -0.0056223686149 -0.0056103618272 -0.0056410166358 -0.0057088436231 -0.005803960903 -0.0059162003884 -0.0060423082377 -0.0061788655057 
-0.0063331508097 -0.0065108976587 -0.0067174176782 -0.0069576582146 -0.0072332055716 -0.007543158331 -0.0078836885525 -0.0082480614166 -0.008626712123 
-0.0090071975282 -0.0093741168482 -0.0097092459113 -0.0099920492153 -0.010200597657 -0.010312771489 -0.010307574249 -0.010166417858 -0.0098742696814 
-0.0094206281055 -0.0088001812173 -0.008012367405 -0.0071087151641 -0.0060914498089 -0.004998627926 -0.0038800760363 -0.0027932093849 -0.0018008875942 
-0.00096748085076 -0.00035258528511 -2.4274222326e-06 6.0504026749e-05 -0.00015178051843 -0.00058456307759 -0.0011400155162 -0.0017057289676 -0.0022176516418 
-0.0025964935949 -0.0028305700111 -0.002958929593 -0.0030120221465 -0.0030121525027 -0.0029599352027 -0.0055565405318 -0.00555244194 -0.005593763082 
-0.0056704649601 -0.0057685162191 -0.0058766127774 -0.0059920639548 -0.0061173239462 -0.006262231313 -0.0064358359323 -0.0066457487534 -0.0068972566735 
-0.0071923288633 -0.0075299262766 -0.0079061380749 -0.0083141292603 -0.0087438608846 -0.0091817370252 -0.009610534789 -0.010009803077 -0.010356777665 
-0.010627645725 -0.010798945442 -0.010848890549 -0.010758533211 -0.010512794165 -0.0101014082 -0.009519873191 -0.0087781601569 -0.0079095954969 
-0.0069177530538 -0.0058418303246 -0.0047296448552 -0.0036368125052 -0.0026246255053 -0.001756277191 -0.001090988925 -0.00067594354124 -0.00053649749764 
-0.00066611827705 -0.0010191393356 -0.0015116427536 -0.0020368070293 -0.0025096229756 -0.0028694984232 -0.0030669493703 -0.0031550975039 -0.0031752746547 
-0.0031563974955 -0.0031023900887 -0.0054420637888 -0.0054543027083 -0.0055120094014 -0.0056000109716 -0.0057021964797 -0.0058099362836 -0.0059226508423 
-0.0060488223865 -0.0062008013933 -0.0063904372671 -0.0066267246916 -0.0069150844549 -0.0072574083718 -0.00765229143 -0.0080951304136 -0.0085778138067 
-0.0090882329097 -0.0096101121625 -0.010123328032 -0.010604798308 -0.011029772089 -0.011373251058 -0.011611322545 -0.011722314849 -0.0116878275 
-0.011493658554 -0.01113063724 -0.010595229284 -0.0099093185104 -0.0090718604103 -0.0081055151709 -0.007044966219 -0.0059344503892 -0.0048262772778 
-0.0037787672302 -0.0028528388535 -0.0021067499382 -0.0015888370101 -0.0013286579778 -0.0013278814215 -0.0015536403502 -0.0019384813143 -0.0023908834106 
-0.0028162785928 -0.0031319189223 -0.0033288324004 -0.0033977363649 -0.0034013918316 -0.0033745087491 -0.0033288208904 -0.005278336414 -0.005314097847 
-0.005390500687 -0.0054898472904 -0.0056018104154 -0.0057171211257 -0.0058418390758 -0.0059885216425 -0.0061717194841 -0.0064042741991 -0.0066953185299 
-0.0070500021946 -0.0074696051795 -0.0079516883937 -0.0084898685596 -0.0090733492411 -0.009686773373 -0.010310524087 -0.010921608041 -0.011494947616 
-0.012004766926 -0.012425885107 -0.012734840968 -0.012910885199 -0.012936879193 -0.012800177498 -0.012493544264 -0.012016135772 -0.011380453204 
-0.010582590991 -0.009645951471 -0.0086021802633 -0.0074913842183 -0.0063614331684 -0.0052664071728 -0.0042638065906 -0.0034101398088 -0.0027547241853 
-0.0023320015569 -0.0021534467962 -0.0022011698623 -0.0024261753943 -0.0027539561877 -0.0030979067381 -0.0033789350867 -0.0035553634632 -0.0036380166681 
-0.0036528118543 -0.0036357602896 -0.0036068029488 -0.0050702009319 -0.0051341311659 -0.0052293499727 -0.0053449144521 -0.0054712254884 -0.0056083110388 
-0.0057658087999 -0.0059582345296 -0.0062005013454 -0.0065048920504 -0.0068798590223 -0.0073296354444 -0.007854238436 -0.0084492079449 -0.0091051688536 
-0.0098077904822 -0.01053813448 -0.011273588741 -0.01198917026 -0.012658850813 -0.01325679193 -0.013758412107 -0.014141309442 -0.014386090917 
-0.014477193375 -0.014403728089 -0.014160386272 -0.013748580051 -0.013165943852 -0.012413344665 -0.011511305861 -0.010487581243 -0.0093774046326 
-0.0082232314926 -0.007073763115 -0.0059819312138 -0.0050015106633 -0.0041821750904 -0.003563162445 -0.0031662945547 -0.0029898293991 -0.0030052412824 
-0.0031590747374 -0.0033814091639 -0.0036020311261 -0.003774095904 -0.0038748227202 -0.0039100974069 -0.003919401046 -0.0039127064878 -0.0048341929744 
-0.0049288889107 -0.0050426564943 -0.005176296269 -0.0053292010634 -0.0055066793357 -0.0057202626194 -0.0059842769828 -0.006312321478 -0.0067152854065 
-0.0072001984551 -0.0077697400345 -0.008421718779 -0.0091485165239 -0.0099371043186 -0.010769451803 -0.011623560105 -0.012474809742 -0.013297237574 
-0.014064731251 -0.014752031936 -0.015335585231 -0.015794314122 -0.016110360107 -0.016269792499 -0.016263314274 -0.016087056226 -0.015743523522 
-0.015218341488 -0.01451592422 -0.013653677606 -0.012655001119 -0.011549664363 -0.010373913576 -0.0091700748419 -0.0079853698284 -0.0068696493551 
-0.0058718322689 -0.005035067757 -0.0043910337533 -0.0039542981733 -0.0037181402225 -0.0036534550519 -0.0037122628096 -0.003836876441 -0.0039738624196 
-0.0040861947525 -0.0041741254566 -0.004221790257 -0.004239969437 -0.0045982247329 -0.0047214390041 -0.0048537635611 -0.0050136282714 -0.0052078042016 
-0.0054446744285 -0.0057357098501 -0.0060934676353 -0.0065295152391 -0.0070527189137 -0.0076681133723 -0.0083758864831 -0.009170482831 -0.010040508576 
-0.010969123712 -0.011935161938 -0.01291454575 -0.0138815486 -0.014809985256 -0.015674165632 -0.016449701694 -0.017114259828 -0.017648240895 
-0.018035381801 -0.018263310299 -0.018324109918 -0.018214931015 -0.017938708961 -0.017473083673 -0.016824528929 -0.016007313172 -0.015040290514 
-0.013947422485 -0.012758192295 -0.011507740856 -0.01023650099 -0.0089890680252 -0.0078120729242 -0.0067509485498 -0.0058457152239 -0.0051262287782 
-0.0046076533434 -0.0042871431943 -0.0041428020482 -0.0041359848707 -0.0042180582031 -0.0043427466471 -0.004469174898 -0.004554139163 -0.0045974433155 
-0.004399062949 -0.0045453272644 -0.0047010489284 -0.0048967096919 -0.0051456275463 -0.0054573933871 -0.0058419946069 -0.0063097247962 -0.0068697261352 
-0.0075284312684 -0.0082880191889 -0.0091450017485 -0.010089811971 -0.011107038849 -0.012176542322 -0.013274915169 -0.01437674925 -0.015455857537 
-0.016486204686 -0.017442717426 -0.018302054798 -0.019043261042 -0.019648315335 -0.020102594193 -0.020395264607 -0.020519649212 -0.020473642848 
-0.020260228836 -0.019853643335 -0.019261096798 -0.018493822345 -0.01756617569 -0.016496239931 -0.015306472555 -0.014024290143 -0.012682429981 
-0.011318882403 -0.009976168433 -0.0086997662181 -0.0075355813483 -0.0065264926466 -0.0057081446272 -0.00510425597 -0.0047217948055 -0.0045466155674 
-0.004541036893 -0.0046468790283 -0.0047959914695 -0.0049300293655 -0.0050013296459 -0.0042786971411 -0.0044461667921 -0.0046280212761 -0.0048669104635 
-0.005179928728 -0.0055763167396 -0.0060641977166 -0.0066514951888 -0.0073447339094 -0.0081472267851 -0.009057147755 -0.010066658973 -0.0111618496 
-0.012323710239 -0.013529576396 -0.014754383818 -0.015971926413 -0.017155794527 -0.018280226959 -0.019320940059 -0.020255792155 -0.021065348066 
-0.021733305405 -0.02224678353 -0.022596526165 -0.022777080954 -0.022787003159 -0.022629116309 -0.022278590586 -0.021742496202 -0.021029240793 
-0.020148935137 -0.01911401456 -0.017940009587 -0.016646432887 -0.015257708883 -0.013804015905 -0.012321854736 -0.010854113546 -0.0094493657414 
-0.0081600999009 -0.0070395127018 -0.0061363940092 -0.0054875775845 -0.0051077486548 -0.0049779643537 -0.0050387896167 -0.0052001557625 -0.0053752062446 
-0.005473712503 -0.0042780694583 -0.0044630894887 -0.0046730199811 -0.0049591697691 -0.0053404241009 -0.0058252196387 -0.0064199473116 -0.0071301993387 
-0.0079594401403 -0.0089068301888 -0.0099658855691 -0.011124052898 -0.012363417395 -0.013662049586 -0.014995204592 -0.01633658665 -0.017659307947 
-0.018936804172 -0.020143751059 -0.021256786652 -0.022255144312 -0.023121098754 -0.023840225686 -0.024401534047 -0.024797489788 -0.025023972688 
-0.025080220914 -0.024968834323 -0.024669395706 -0.024188447359 -0.023531869134 -0.022706002655 -0.021718187336 -0.020577514048 -0.019295838518 
-0.017889067491 -0.016378684315 -0.014793410316 -0.013170798473 -0.011558414121 -0.010014057821 -0.0086042065604 -0.0073995001381 -0.0064658118678 
-0.0058496795339 -0.0055587908346 -0.0055441648016 -0.0057018440039 -0.0059062282849 -0.0060319706735 -0.0044266565071 -0.004625606034 -0.0048635901219 
-0.0051971883563 -0.0056460881203 -0.0062181106709 -0.0069181443843 -0.0077492646292 -0.0087110269435 -0.0097978508021 -0.010998273589 -0.012295330747 
-0.013667746951 -0.015091033392 -0.016538710699 -0.017983278507 -0.019397190682 -0.02075387515 -0.022028552984 -0.023198979289 -0.024245958805 
-0.025153648 -0.025909700167 -0.026505223241 -0.026934593605 -0.02719517267 -0.027286982133 -0.027212430609 -0.02695776046 -0.026528963024 
-0.025929793206 -0.025163497706 -0.024233164402 -0.023142319259 -0.021895870332 -0.020501505244 -0.018971624985 -0.017325826551 -0.015593812631 
-0.013818387207 -0.012057861112 -0.010386704554 -0.0088926544413 -0.0076678796677 -0.0067917513791 -0.0063045548589 -0.0061777919383 -0.0063011922335 
-0.0065145645764 -0.0066847697833 -0.0047415702959 -0.0049501818141 -0.0052138645448 -0.0055918612804 -0.0061043662676 -0.0067588189196 -0.0075585975539 
-0.0085036195309 -0.0095890184764 -0.010804253172 -0.012133197054 -0.01355515388 -0.015045841611 -0.016578524864 -0.018124978923 -0.019656495357 
-0.021145008694 -0.022564034071 -0.02388954289 -0.025100591215 -0.026179720773 -0.027113183972 -0.027890918417 -0.028506322633 -0.028955858975 
-0.029238518126 -0.029355213171 -0.029308110633 -0.02909129154 -0.028710196077 -0.028166940875 -0.027462510057 -0.026596818626 -0.025569027852 
-0.024378244339 -0.023024788953 -0.021512235303 -0.019850369158 -0.018059089933 -0.016173015862 -0.014246110455 -0.012354967283 -0.010598470984 
-0.009090554818 -0.0079422617253 -0.0072306932554 -0.0069587497026 -0.0070263004228 -0.0072554880522 -0.0074569046887 -0.0052262501346 -0.005439449174 
-0.0057246226988 -0.0061419436435 -0.0067119176198 -0.0074415502443 -0.00833220622 -0.0093801695038 -0.01057603337 -0.01190464722 -0.013345981142 
-0.014876031745 -0.016467840847 -0.018092440033 -0.019719854388 -0.021320321089 -0.022865355967 -0.024328775659 -0.02568747654 -0.026921973706 
-0.028016758916 -0.028960360404 -0.029745161594 -0.030366983468 -0.030824460794 -0.031118306539 -0.031250523478 -0.031222189123 -0.03103660357 
-0.030697694356 -0.030206636816 -0.029563084576 -0.028764974307 -0.027808513981 -0.026688517415 -0.025399333593 -0.023936673744 -0.022300650119 
-0.020500248903 -0.018559195661 -0.016522660805 -0.01446340815 -0.012484776887 -0.010716449231 -0.0092978484964 -0.0083446620738 -0.0078995865769 
-0.0078854056888 -0.0081109745479 -0.0083479529952 -0.0058712685732 -0.0060835389483 -0.0063851422782 -0.006835873827 -0.0074561112228 -0.0082518728075 
-0.0092219757667 -0.010358978784 -0.011649310342 -0.013074047672 -0.014609808602 -0.016229671116 -0.017904095015 -0.019601903064 -0.021291565528 
-0.022942397207 -0.024525727286 -0.026015856036 -0.027390760242 -0.028632628092 -0.02972806093 -0.030667997367 -0.031447343975 -0.032064328277 
-0.032519697422 -0.03281583478 -0.032955897185 -0.032940011139 -0.032779481612 -0.032476538112 -0.032032045135 -0.03144518369 -0.030713069781 
-0.029830430797 -0.028789519247 -0.027580537197 -0.026192963556 -0.024618261757 -0.022854427171 -0.0209126257 -0.018825643836 -0.016656895999 
-0.014507248255 -0.012515009644 -0.010842618067 -0.0096431922832 -0.0090044600651 -0.0088838731024 -0.0090887693634 -0.00935826738 -0.0066566672367 
-0.0068627685136 -0.0071758288693 -0.0076540108611 -0.0083167134719 -0.009168232065 -0.010204628289 -0.01141507027 -0.012782677677 -0.014285446331 
-0.015897106619 -0.017588025672 -0.019326162314 -0.021078387605 -0.022811808619 -0.024495080565 -0.026099555883 -0.027600178076 -0.028976227879 
-0.030211720584 -0.031295492144 -0.032220943193 -0.03298542225 -0.033589403189 -0.034035525968 -0.034327620683 -0.034469797131 -0.034462944228 
-0.03432183296 -0.034048392743 -0.033643515692 -0.03310656154 -0.032434810883 -0.031622877155 -0.030662199442 -0.029540880794 -0.028244302671 
-0.026757118966 -0.025067351064 -0.023173200987 -0.021092710569 -0.018875352198 -0.016612906949 -0.014444593509 -0.012548786949 -0.011112103326 
-0.010269307926 -0.010022226245 -0.010190006819 -0.010484119172 -0.0075551400114 -0.0077507634227 -0.0080709322088 -0.0085708107113 -0.0092677634126 
-0.01016387427 -0.011252623593 -0.012520563891 -0.013948293701 -0.015511259874 -0.017180625217 -0.018924199461 -0.020707763961 -0.022496512093 
-0.024256495231 -0.025955964383 -0.027566468995 -0.02906383317 -0.030428801152 -0.031647342169 -0.032710578694 -0.033614265001 -0.034357993474 
-0.034944192472 -0.035377063206 -0.03566159417 -0.035802666564 -0.03580254612 -0.035676443581 -0.035426411514 -0.035053682913 -0.034558259987 
-0.03393832265 -0.033189467753 -0.032303863631 -0.031269523368 -0.030070098403 -0.028685879323 -0.027096943793 -0.025289467782 -0.023265874024 
-0.021058452002 -0.018744154277 -0.016455409626 -0.014378321421 -0.012726717561 -0.01168125879 -0.011295201656 -0.011413648838 -0.011730493213 
-0.0085353365488 -0.0087173939893 -0.0090409588698 -0.0095568661295 -0.010279618575 -0.011208963871 -0.012336365273 -0.01364654519 -0.015118144823 
-0.016724456579 -0.018434297195 -0.020213293432 -0.022025414922 -0.023834540384 -0.025605979125 -0.027307779725 -0.028911939425 -0.030395336766 
-0.031740309933 -0.032934845171 -0.033972237682 -0.034850397353 -0.035570849742 -0.03613759344 -0.036556012694 -0.036831892458 -0.036970623919 
-0.03697599913 -0.036861529587 -0.036629526879 -0.036281719786 -0.035818996987 -0.03524086199 -0.034544623536 -0.033724338632 -0.032769625991 
-0.031664688471 -0.030388191181 -0.028915062486 -0.027221630049 -0.025295406327 -0.023149915966 -0.020842904296 -0.018492959087 -0.016285238502 
-0.014452671278 -0.013217568333 -0.012687922263 -0.012746266525 -0.013076499966 -0.0095647463223 -0.009731169527 -0.010054670484 -0.010580876072 
-0.011321013947 -0.012272728795 -0.013426106905 -0.014764567214 -0.016265195719 -0.017899391138 -0.019634014825 -0.021432957687 -0.023258798215 
-0.02507447843 -0.026844810536 -0.028537905629 -0.030126405803 -0.031588377523 -0.032907827658 -0.034074651759 -0.035084134441 -0.035936042876 
-0.03663344909 -0.037181534188 -0.037586445684 -0.037854376947 -0.037990917349 -0.038001217055 -0.037895860587 -0.037677420159 -0.037348127972 
-0.036909795345 -0.036363388443 -0.035708263425 -0.034941035794 -0.034054133754 -0.03303421122 -0.0318609423 -0.030507275546 -0.028942827139 
-0.027142394198 -0.025100947617 -0.022854387735 -0.020501639618 -0.018218470438 -0.016247609315 -0.014846009361 -0.014175898161 -0.014166262294 
-0.014501220438 -0.010611912395 -0.01076098362 -0.011080755233 -0.01161145114 -0.012360991249 -0.013325272947 -0.014493387654 -0.015847767325 
-0.017364188298 -0.019012514618 -0.020758146996 -0.022563708438 -0.024390826042 -0.026201805577 -0.027961245967 -0.029637549784 -0.031204145755 
-0.032640372332 -0.033931811562 -0.035070095524 -0.036052221782 -0.036879446255 -0.037556029702 -0.038087923897 -0.038481633173 -0.038743381058 
-0.038878613447 -0.038893558718 -0.038795449279 -0.038587041918 -0.038270976547 -0.037849884954 -0.03732610563 -0.036701029864 -0.035974052585 
-0.035141050392 -0.034192423259 -0.033111033526 -0.031870941288 -0.030438699061 -0.028779764504 -0.026872491348 -0.02473024647 -0.022428174673 
-0.020125116636 -0.018063886974 -0.016527004498 -0.015726999523 -0.015645297536 -0.015977259906 -0.011648056095 -0.011777145673 -0.012089127721 
-0.01261866563 -0.013370484722 -0.014338871905 -0.015512045812 -0.016871597473 -0.018392263644 -0.020042860268 -0.021787822483 -0.02358899323 
-0.025407409539 -0.027205049079 -0.028946565424 -0.030600816943 -0.032142114804 -0.033551000469 -0.034814460974 -0.035925608403 -0.036882803463 
-0.037688464603 -0.038347658228 -0.038866727365 -0.039252177874 -0.039509916681 -0.03964494158 -0.039664237751 -0.039571953034 -0.03937088174 
-0.039063912824 -0.038654313095 -0.038145563802 -0.037540870632 -0.036842264999 -0.036049181759 -0.035156410782 -0.034151483499 -0.033012146878 
-0.031705526662 -0.030191833091 -0.028436179881 -0.02643065058 -0.024224506395 -0.021953643221 -0.019851647123 -0.01821630747 -0.017303631986 
-0.017150025987 -0.017472672689 -0.012648847846 -0.012751100701 -0.013051869387 -0.013575302071 -0.014323427079 -0.01528883163 -0.016458848474 
-0.017814334928 -0.019329394433 -0.020972291476 -0.02270700625 -0.02449501957 -0.026297113697 -0.0280752491 -0.02979433746 -0.03142381286 
-0.032938839754 -0.034320997353 -0.035558436503 -0.036645413351 -0.03758133745 -0.038369430291 -0.039015207754 -0.039525087359 -0.039905282814 
-0.040161171589 -0.040297063447 -0.040320002089 -0.040232462293 -0.040036713722 -0.039735705284 -0.039333152855 -0.03883343885 -0.038241250254 
-0.037560883774 -0.03679506486 -0.035943021287 -0.034997659406 -0.03394219653 -0.032747468491 -0.031372673071 -0.029774030179 -0.02792529844 
-0.02584986215 -0.023656616995 -0.02156175221 -0.019867703167 -0.018864937928 -0.018643904393 -0.018952689645 -0.013586639499 -0.013665779159 
-0.013944542103 -0.014457847383 -0.015197491866 -0.016154005232 -0.017313886075 -0.018657434477 -0.020158590971 -0.021785577921 -0.023502379605 
-0.025270476787 -0.027050749964 -0.028805396059 -0.030499740274 -0.032103827802 -0.033593537151 -0.034951260751 -0.036165992846 -0.037232811096 
-0.038151824967 -0.038926701151 -0.039563097448 -0.040067227596 -0.040444852992 -0.040700784214 -0.040838911765 -0.040863228506 -0.040780195083 
-0.040588304777 -0.04029083298 -0.039891912011 -0.03939662332 -0.038810789858 -0.038140518837 -0.037391313393 -0.036566461769 -0.035664283384 
-0.034674356815 -0.033573504123 -0.032323742064 -0.030877141514 -0.029193363914 -0.027271879254 -0.025192717606 -0.023148245162 -0.021435437402 
-0.020368836838 -0.020088814351 -0.020381120656 -0.0144375873 -0.014504321732 -0.014755843188 -0.015246940481 -0.015974609856 -0.01691705769 
-0.018060849728 -0.019385693176 -0.020865953162 -0.022470303912 -0.02416310814 -0.025906227789 -0.027660954546 -0.029389922589 -0.03105896179 