# vtk DataFile Version 4.1
vtk output
ASCII
DATASET STRUCTURED_GRID
DIMENSIONS 51 51 1
POINTS 2601 float
0 0 0 0.02 0 0 0.04 0 0 
0.06 0 0 0.08 0 0 0.1 0 0 
0.12 0 0 0.14 0 0 0.16 0 0 
0.18 0 0 0.2 0 0 0.22 0 0 
0.24 0 0 0.26 0 0 0.28 0 0 
0.3 0 0 0.32 0 0 0.34 0 0 
0.36 0 0 0.38 0 0 0.4 0 0 
0.42 0 0 0.44 0 0 0.46 0 0 
0.48 0 0 0.5 0 0 0.52 0 0 
0.54 0 0 0.56 0 0 0.58 0 0 
0.6 0 0 0.62 0 0 0.64 0 0 
0.66 0 0 0.68 0 0 0.7 0 0 
0.72 0 0 0.74 0 0 0.76 0 0 
0.78 0 0 0.8 0 0 0.82 0 0 
0.84 0 0 0.86 0 0 0.88 0 0 
0.9 0 0 0.92 0 0 0.94 0 0 
0.96 0 0 0.98 0 0 1 0 0 
0 0.02 0 0.02 0.02 0 0.04 0.02 0 
0.06 0.02 0 0.08 0.02 0 0.1 0.02 0 
0.12 0.02 0 0.14 0.02 0 0.16 0.02 0 
0.18 0.02 0 0.2 0.02 0 0.22 0.02 0 
0.24 0.02 0 0.26 0.02 0 0.28 0.02 0 
0.3 0.02 0 0.32 0.02 0 0.34 0.02 0 
0.36 0.02 0 0.38 0.02 0 0.4 0.02 0 
0.42 0.02 0 0.44 0.02 0 0.46 0.02 0 
0.48 0.02 0 0.5 0.02 0 0.52 0.02 0 
0.54 0.02 0 0.56 0.02 0 0.58 0.02 0 
0.6 0.02 0 0.62 0.02 0 0.64 0.02 0 
0.66 0.02 0 0.68 0.02 0 0.7 0.02 0 
0.72 0.02 0 0.74 0.02 0 0.76 0.02 0 
0.78 0.02 0 0.8 0.02 0 0.82 0.02 0 
0.84 0.02 0 0.86 0.02 0 0.88 0.02 0 
0.9 0.02 0 0.92 0.02 0 0.94 0.02 0 
0.96 0.02 0 0.98 0.02 0 1 0.02 0 
0 0.04 0 0.02 0.04 0 0.04 0.04 0 
0.06 0.04 0 0.08 0.04 0 0.1 0.04 0 
0.12 0.04 0 0.14 0.04 0 0.16 0.04 0 
0.18 0.04 0 0.2 0.04 0 0.22 0.04 0 
0.24 0.04 0 0.26 0.04 0 0.28 0.04 0 
0.3 0.04 0 0.32 0.04 0 0.34 0.04 0 
0.36 0.04 0 0.38 0.04 0 0.4 0.04 0 
0.42 0.04 0 0.44 0.04 0 0.46 0.04 0 
0.48 0.04 0 0.5 0.04 0 0.52 0.04 0 
0.54 0.04 0 0.56 0.04 0 0.58 0.04 0 
0.6 0.04 0 0.62 0.04 0 0.64 0.04 0 
0.66 0.04 0 0.68 0.04 0 0.7 0.04 0 
0.72 0.04 0 0.74 0.04 0 0.76 0.04 0 
0.78 0.04 0 0.8 0.04 0 0.82 0.04 0 
0.84 0.04 0 0.86 0.04 0 0.88 0.04 0 
0.9 0.04 0 0.92 0.04 0 0.94 0.04 0 
0.96 0.04 0 0.98 0.04 0 1 0.04 0 
0 0.06 0 0.02 0.06 0 0.04 0.06 0 
0.06 0.06 0 0.08 0.06 0 0.1 0.06 0 
0.12 0.06 0 0.14 0.06 0 0.16 0.06 0 
0.18 0.06 0 0.2 0.06 0 0.22 0.06 0 
0.24 0.06 0 0.26 0.06 0 0.28 0.06 0 
0.3 0.06 0 0.32 0.06 0 0.34 0.06 0 
0.36 0.06 0 0.38 0.06 0 0.4 0.06 0 
0.42 0.06 0 0.44 0.06 0 0.46 0.06 0 
0.48 0.06 0 0.5 0.06 0 0.52 0.06 0 
0.54 0.06 0 0.56 0.06 0 0.58 0.06 0 
0.6 0.06 0 0.62 0.06 0 0.64 0.06 0 
0.66 0.06 0 0.68 0.06 0 0.7 0.06 0 
0.72 0.06 0 0.74 0.06 0 0.76 0.06 0 
0.78 0.06 0 0.8 0.06 0 0.82 0.06 0 
0.84 0.06 0 0.86 0.06 0 0.88 0.06 0 
0.9 0.06 0 0.92 0.06 0 0.94 0.06 0 
0.96 0.06 0 0.98 0.06 0 1 0.06 0 
0 0.08 0 0.02 0.08 0 0.04 0.08 0 
0.06 0.08 0 0.08 0.08 0 0.1 0.08 0 
0.12 0.08 0 0.14 0.08 0 0.16 0.08 0 
0.18 0.08 0 0.2 0.08 0 0.22 0.08 0 
0.24 0.08 0 0.26 0.08 0 0.28 0.08 0 
0.3 0.08 0 0.32 0.08 0 0.34 0.08 0 
0.36 0.08 0 0.38 0.08 0 0.4 0.08 0 
0.42 0.08 0 0.44 0.08 0 0.46 0.08 0 
0.48 0.08 0 0.5 0.08 0 0.52 0.08 0 
0.54 0.08 0 0.56 0.08 0 0.58 0.08 0 
0.6 0.08 0 0.62 0.08 0 0.64 0.08 0 
0.66 0.08 0 0.68 0.08 0 0.7 0.08 0 
0.72 0.08 0 0.74 0.08 0 0.76 0.08 0 
0.78 0.08 0 0.8 0.08 0 0.82 0.08 0 
0.84 0.08 0 0.86 0.08 0 0.88 0.08 0 
0.9 0.08 0 0.92 0.08 0 0.94 0.08 0 
0.96 0.08 0 0.98 0.08 0 1 0.08 0 
0 0.1 0 0.02 0.1 0 0.04 0.1 0 
0.06 0.1 0 0.08 0.1 0 0.1 0.1 0 
0.12 0.1 0 0.14 0.1 0 0.16 0.1 0 
0.18 0.1 0 0.2 0.1 0 0.22 0.1 0 
0.24 0.1 0 0.26 0.1 0 0.28 0.1 0 
0.3 0.1 0 0.32 0.1 0 0.34 0.1 0 
0.36 0.1 0 0.38 0.1 0 0.4 0.1 0 
0.42 0.1 0 0.44 0.1 0 0.46 0.1 0 
0.48 0.1 0 0.5 0.1 0 0.52 0.1 0 
0.54 0.1 0 0.56 0.1 0 0.58 0.1 0 
0.6 0.1 0 0.62 0.1 0 0.64 0.1 0 
0.66 0.1 0 0.68 0.1 0 0.7 0.1 0 
0.72 0.1 0 0.74 0.1 0 0.76 0.1 0 
0.78 0.1 0 0.8 0.1 0 0.82 0.1 0 
0.84 0.1 0 0.86 0.1 0 0.88 0.1 0 
0.9 0.1 0 0.92 0.1 0 0.94 0.1 0 
0.96 0.1 0 0.98 0.1 0 1 0.1 0 
0 0.12 0 0.02 0.12 0 0.04 0.12 0 
0.06 0.12 0 0.08 0.12 0 0.1 0.12 0 
0.12 0.12 0 0.14 0.12 0 0.16 0.12 0 
0.18 0.12 0 0.2 0.12 0 0.22 0.12 0 
0.24 0.12 0 0.26 0.12 0 0.28 0.12 0 
0.3 0.12 0 0.32 0.12 0 0.34 0.12 0 
0.36 0.12 0 0.38 0.12 0 0.4 0.12 0 
0.42 0.12 0 0.44 0.12 0 0.46 0.12 0 
0.48 0.12 0 0.5 0.12 0 0.52 0.12 0 
0.54 0.12 0 0.56 0.12 0 0.58 0.12 0 
0.6 0.12 0 0.62 0.12 0 0.64 0.12 0 
0.66 0.12 0 0.68 0.12 0 0.7 0.12 0 
0.72 0.12 0 0.74 0.12 0 0.76 0.12 0 
0.78 0.12 0 0.8 0.12 0 0.82 0.12 0 
0.84 0.12 0 0.86 0.12 0 0.88 0.12 0 
0.9 0.12 0 0.92 0.12 0 0.94 0.12 0 
0.96 0.12 0 0.98 0.12 0 1 0.12 0 
0 0.14 0 0.02 0.14 0 0.04 0.14 0 
0.06 0.14 0 0.08 0.14 0 0.1 0.14 0 
0.12 0.14 0 0.14 0.14 0 0.16 0.14 0 
0.18 0.14 0 0.2 0.14 0 0.22 0.14 0 
0.24 0.14 0 0.26 0.14 0 0.28 0.14 0 
0.3 0.14 0 0.32 0.14 0 0.34 0.14 0 
0.36 0.14 0 0.38 0.14 0 0.4 0.14 0 
0.42 0.14 0 0.44 0.14 0 0.46 0.14 0 
0.48 0.14 0 0.5 0.14 0 0.52 0.14 0 
0.54 0.14 0 0.56 0.14 0 0.58 0.14 0 
0.6 0.14 0 0.62 0.14 0 0.64 0.14 0 
0.66 0.14 0 0.68 0.14 0 0.7 0.14 0 
0.72 0.14 0 0.74 0.14 0 0.76 0.14 0 
0.78 0.14 0 0.8 0.14 0 0.82 0.14 0 
0.84 0.14 0 0.86 0.14 0 0.88 0.14 0 
0.9 0.14 0 0.92 0.14 0 0.94 0.14 0 
0.96 0.14 0 0.98 0.14 0 1 0.14 0 
0 0.16 0 0.02 0.16 0 0.04 0.16 0 
0.06 0.16 0 0.08 0.16 0 0.1 0.16 0 
0.12 0.16 0 0.14 0.16 0 0.16 0.16 0 
0.18 0.16 0 0.2 0.16 0 0.22 0.16 0 
0.24 0.16 0 0.26 0.16 0 0.28 0.16 0 
0.3 0.16 0 0.32 0.16 0 0.34 0.16 0 
0.36 0.16 0 0.38 0.16 0 0.4 0.16 0 
0.42 0.16 0 0.44 0.16 0 0.46 0.16 0 
0.48 0.16 0 0.5 0.16 0 0.52 0.16 0 
0.54 0.16 0 0.56 0.16 0 0.58 0.16 0 
0.6 0.16 0 0.62 0.16 0 0.64 0.16 0 
0.66 0.16 0 0.68 0.16 0 0.7 0.16 0 
0.72 0.16 0 0.74 0.16 0 0.76 0.16 0 
0.78 0.16 0 0.8 0.16 0 0.82 0.16 0 
0.84 0.16 0 0.86 0.16 0 0.88 0.16 0 
0.9 0.16 0 0.92 0.16 0 0.94 0.16 0 
0.96 0.16 0 0.98 0.16 0 1 0.16 0 
0 0.18 0 0.02 0.18 0 0.04 0.18 0 
0.06 0.18 0 0.08 0.18 0 0.1 0.18 0 
0.12 0.18 0 0.14 0.18 0 0.16 0.18 0 
0.18 0.18 0 0.2 0.18 0 0.22 0.18 0 
0.24 0.18 0 0.26 0.18 0 0.28 0.18 0 
0.3 0.18 0 0.32 0.18 0 0.34 0.18 0 
0.36 0.18 0 0.38 0.18 0 0.4 0.18 0 
0.42 0.18 0 0.44 0.18 0 0.46 0.18 0 
0.48 0.18 0 0.5 0.18 0 0.52 0.18 0 
0.54 0.18 0 0.56 0.18 0 0.58 0.18 0 
0.6 0.18 0 0.62 0.18 0 0.64 0.18 0 
0.66 0.18 0 0.68 0.18 0 0.7 0.18 0 
0.72 0.18 0 0.74 0.18 0 0.76 0.18 0 
0.78 0.18 0 0.8 0.18 0 0.82 0.18 0 
0.84 0.18 0 0.86 0.18 0 0.88 0.18 0 
0.9 0.18 0 0.92 0.18 0 0.94 0.18 0 
0.96 0.18 0 0.98 0.18 0 1 0.18 0 
0 0.2 0 0.02 0.2 0 0.04 0.2 0 
0.06 0.2 0 0.08 0.2 0 0.1 0.2 0 
0.12 0.2 0 0.14 0.2 0 0.16 0.2 0 
0.18 0.2 0 0.2 0.2 0 0.22 0.2 0 
0.24 0.2 0 0.26 0.2 0 0.28 0.2 0 
0.3 0.2 0 0.32 0.2 0 0.34 0.2 0 
0.36 0.2 0 0.38 0.2 0 0.4 0.2 0 
0.42 0.2 0 0.44 0.2 0 0.46 0.2 0 
0.48 0.2 0 0.5 0.2 0 0.52 0.2 0 
0.54 0.2 0 0.56 0.2 0 0.58 0.2 0 
0.6 0.2 0 0.62 0.2 0 0.64 0.2 0 
0.66 0.2 0 0.68 0.2 0 0.7 0.2 0 
0.72 0.2 0 0.74 0.2 0 0.76 0.2 0 
0.78 0.2 0 0.8 0.2 0 0.82 0.2 0 
0.84 0.2 0 0.86 0.2 0 0.88 0.2 0 
0.9 0.2 0 0.92 0.2 0 0.94 0.2 0 
0.96 0.2 0 0.98 0.2 0 1 0.2 0 
0 0.22 0 0.02 0.22 0 0.04 0.22 0 
0.06 0.22 0 0.08 0.22 0 0.1 0.22 0 
0.12 0.22 0 0.14 0.22 0 0.16 0.22 0 
0.18 0.22 0 0.2 0.22 0 0.22 0.22 0 
0.24 0.22 0 0.26 0.22 0 0.28 0.22 0 
0.3 0.22 0 0.32 0.22 0 0.34 0.22 0 
0.36 0.22 0 0.38 0.22 0 0.4 0.22 0 
0.42 0.22 0 0.44 0.22 0 0.46 0.22 0 
0.48 0.22 0 0.5 0.22 0 0.52 0.22 0 
0.54 0.22 0 0.56 0.22 0 0.58 0.22 0 
0.6 0.22 0 0.62 0.22 0 0.64 0.22 0 
0.66 0.22 0 0.68 0.22 0 0.7 0.22 0 
0.72 0.22 0 0.74 0.22 0 0.76 0.22 0 
0.78 0.22 0 0.8 0.22 0 0.82 0.22 0 
0.84 0.22 0 0.86 0.22 0 0.88 0.22 0 
0.9 0.22 0 0.92 0.22 0 0.94 0.22 0 
0.96 0.22 0 0.98 0.22 0 1 0.22 0 
0 0.24 0 0.02 0.24 0 0.04 0.24 0 
0.06 0.24 0 0.08 0.24 0 0.1 0.24 0 
0.12 0.24 0 0.14 0.24 0 0.16 0.24 0 
0.18 0.24 0 0.2 0.24 0 0.22 0.24 0 
0.24 0.24 0 0.26 0.24 0 0.28 0.24 0 
0.3 0.24 0 0.32 0.24 0 0.34 0.24 0 
0.36 0.24 0 0.38 0.24 0 0.4 0.24 0 
0.42 0.24 0 0.44 0.24 0 0.46 0.24 0 
0.48 0.24 0 0.5 0.24 0 0.52 0.24 0 
0.54 0.24 0 0.56 0.24 0 0.58 0.24 0 
0.6 0.24 0 0.62 0.24 0 0.64 0.24 0 
0.66 0.24 0 0.68 0.24 0 0.7 0.24 0 
0.72 0.24 0 0.74 0.24 0 0.76 0.24 0 
0.78 0.24 0 0.8 0.24 0 0.82 0.24 0 
0.84 0.24 0 0.86 0.24 0 0.88 0.24 0 
0.9 0.24 0 0.92 0.24 0 0.94 0.24 0 
0.96 0.24 0 0.98 0.24 0 1 0.24 0 
0 0.26 0 0.02 0.26 0 0.04 0.26 0 
0.06 0.26 0 0.08 0.26 0 0.1 0.26 0 
0.12 0.26 0 0.14 0.26 0 0.16 0.26 0 
0.18 0.26 0 0.2 0.26 0 0.22 0.26 0 
0.24 0.26 0 0.26 0.26 0 0.28 0.26 0 
0.3 0.26 0 0.32 0.26 0 0.34 0.26 0 
0.36 0.26 0 0.38 0.26 0 0.4 0.26 0 
0.42 0.26 0 0.44 0.26 0 0.46 0.26 0 
0.48 0.26 0 0.5 0.26 0 0.52 0.26 0 
0.54 0.26 0 0.56 0.26 0 0.58 0.26 0 
0.6 0.26 0 0.62 0.26 0 0.64 0.26 0 
0.66 0.26 0 0.68 0.26 0 0.7 0.26 0 
0.72 0.26 0 0.74 0.26 0 0.76 0.26 0 
0.78 0.26 0 0.8 0.26 0 0.82 0.26 0 
0.84 0.26 0 0.86 0.26 0 0.88 0.26 0 
0.9 0.26 0 0.92 0.26 0 0.94 0.26 0 
0.96 0.26 0 0.98 0.26 0 1 0.26 0 
0 0.28 0 0.02 0.28 0 0.04 0.28 0 
0.06 0.28 0 0.08 0.28 0 0.1 0.28 0 
0.12 0.28 0 0.14 0.28 0 0.16 0.28 0 
0.18 0.28 0 0.2 0.28 0 0.22 0.28 0 
0.24 0.28 0 0.26 0.28 0 0.28 0.28 0 
0.3 0.28 0 0.32 0.28 0 0.34 0.28 0 
0.36 0.28 0 0.38 0.28 0 0.4 0.28 0 
0.42 0.28 0 0.44 0.28 0 0.46 0.28 0 
0.48 0.28 0 0.5 0.28 0 0.52 0.28 0 
0.54 0.28 0 0.56 0.28 0 0.58 0.28 0 
0.6 0.28 0 0.62 0.28 0 0.64 0.28 0 
0.66 0.28 0 0.68 0.28 0 0.7 0.28 0 
0.72 0.28 0 0.74 0.28 0 0.76 0.28 0 
0.78 0.28 0 0.8 0.28 0 0.82 0.28 0 
0.84 0.28 0 0.86 0.28 0 0.88 0.28 0 
0.9 0.28 0 0.92 0.28 0 0.94 0.28 0 
0.96 0.28 0 0.98 0.28 0 1 0.28 0 
0 0.3 0 0.02 0.3 0 0.04 0.3 0 
0.06 0.3 0 0.08 0.3 0 0.1 0.3 0 
0.12 0.3 0 0.14 0.3 0 0.16 0.3 0 
0.18 0.3 0 0.2 0.3 0 0.22 0.3 0 
0.24 0.3 0 0.26 0.3 0 0.28 0.3 0 
0.3 0.3 0 0.32 0.3 0 0.34 0.3 0 
0.36 0.3 0 0.38 0.3 0 0.4 0.3 0 
0.42 0.3 0 0.44 0.3 0 0.46 0.3 0 
0.48 0.3 0 0.5 0.3 0 0.52 0.3 0 
0.54 0.3 0 0.56 0.3 0 0.58 0.3 0 
0.6 0.3 0 0.62 0.3 0 0.64 0.3 0 
0.66 0.3 0 0.68 0.3 0 0.7 0.3 0 
0.72 0.3 0 0.74 0.3 0 0.76 0.3 0 
0.78 0.3 0 0.8 0.3 0 0.82 0.3 0 
0.84 0.3 0 0.86 0.3 0 0.88 0.3 0 
0.9 0.3 0 0.92 0.3 0 0.94 0.3 0 
0.96 0.3 0 0.98 0.3 0 1 0.3 0 
0 0.32 0 0.02 0.32 0 0.04 0.32 0 
0.06 0.32 0 0.08 0.32 0 0.1 0.32 0 
0.12 0.32 0 0.14 0.32 0 0.16 0.32 0 
0.18 0.32 0 0.2 0.32 0 0.22 0.32 0 
0.24 0.32 0 0.26 0.32 0 0.28 0.32 0 
0.3 0.32 0 0.32 0.32 0 0.34 0.32 0 
0.36 0.32 0 0.38 0.32 0 0.4 0.32 0 
0.42 0.32 0 0.44 0.32 0 0.46 0.32 0 
0.48 0.32 0 0.5 0.32 0 0.52 0.32 0 
0.54 0.32 0 0.56 0.32 0 0.58 0.32 0 
[...]
CELL_DATA 2500
FIELD FieldData 2
pressure 1 2500 double
-0.0067576093976 -0.0067670890296 -0.0067796949242 -0.0067910219796 -0.0067993927185 -0.0068045511928 -0.0068068193284 -0.0068065737345 -0.006803951718 
-0.0067988684433 -0.0067910110136 -0.0067798527394 -0.0067645850108 -0.0067442036281 -0.0067175465258 -0.006683254187 -0.0066397642238 -0.0065853651782 
-0.0065182023477 -0.0064363750143 -0.006337928331 -0.0062209914463 -0.0060838817207 -0.0059252903954 -0.005744466763 -0.0055414082177 -0.0053171197173 
-0.0050739051055 -0.00481565785 -0.0045497860406 -0.0042833583882 -0.0040242622967 -0.0037813920211 -0.0035639027966 -0.0033803568556 -0.0032377683513 
-0.00314067426 -0.0030903510183 -0.003084440479 -0.0031170553187 -0.0031795243094 -0.0032611305552 -0.0033513796436 -0.0034410025747 -0.0035226903029 
-0.003591058352 -0.0036426010528 -0.003675233664 -0.003688519653 -0.0036854799417 -0.0067482674064 -0.0067580374301 -0.0067682312513 -0.0067768983363 
-0.0067831652144 -0.0067868931392 -0.0067882497673 -0.0067873487824 -0.0067842038574 -0.0067786574978 -0.0067703694178 -0.0067587143468 -0.0067429258279 
-0.0067220709442 -0.0066950146251 -0.0066604402612 -0.0066168770514 -0.0065626981262 -0.0064961776863 -0.006415457886 -0.0063186724262 -0.0062040101735 
-0.0060698516266 -0.0059149055885 -0.0057383445331 -0.0055400687269 -0.0053209156454 -0.0050828474931 -0.0048303850158 -0.0045710032019 -0.0043106342694 
-0.0040572202999 -0.0038194845718 -0.0036063628088 -0.0034261948087 -0.003285807926 -0.0031895736307 -0.0031386721125 -0.0031306820077 -0.0031597524082 
-0.0032172907226 -0.003293180712 -0.0033763672229 -0.0034587504868 -0.0035336635886 -0.0035961450761 -0.0036431742948 -0.0036732292957 -0.0036860462446 
-0.0036824827953 -0.0067356929943 -0.0067487848536 -0.0067589738288 -0.0067663181587 -0.0067710609052 -0.0067735567744 -0.0067740275278 -0.0067725874988 
-0.0067692104024 -0.0067636963603 -0.0067555806395 -0.0067442816004 -0.0067290670405 -0.006709023471 -0.0066830596021 -0.0066499225102 -0.0066082259549 
-0.0065564141129 -0.0064927632223 -0.0064154380585 -0.0063225795107 -0.0062123255342 -0.0060829735063 -0.0059330222118 -0.0057614607333 -0.0055679093852 
-0.0053528554708 -0.0051178297173 -0.0048694545409 -0.0046121739565 -0.0043527491034 -0.0040991941779 -0.003860384021 -0.0036454680423 -0.0034630776492 
-0.0033203835462 -0.0032221095337 -0.0031697104516 -0.0031608835817 -0.0031896654777 -0.0032471209941 -0.0033227020674 -0.0034052332768 -0.0034853646285 
-0.0035575877337 -0.0036171018058 -0.0036613769178 -0.0036893310576 -0.003700718491 -0.0036953605808 -0.0067263169941 -0.0067433903108 -0.0067545852589 
-0.0067614873687 -0.0067653552298 -0.0067670097383 -0.0067669304209 -0.0067653324887 -0.0067622154367 -0.0067572799112 -0.0067501167752 -0.0067401630307 
-0.0067267190485 -0.0067089081268 -0.0066856968602 -0.0066559365456 -0.0066182666565 -0.0065711287891 -0.0065127952746 -0.0064414182729 -0.0063550059168 
-0.0062515838668 -0.0061291554824 -0.0059859975182 -0.00582072167 -0.0056325537502 -0.0054215930813 -0.0051890998436 -0.004942023583 -0.0046838880867 
-0.0044216863756 -0.0041636489474 -0.0039189649783 -0.0036972416781 -0.0035077237848 -0.0033583021954 -0.0032544556347 -0.003198270342 -0.0031878258723 
-0.0032170892684 -0.0032766398794 -0.0033549907992 -0.0034404408001 -0.0035223336839 -0.0035946962351 -0.0036535394958 -0.0036965713745 -0.0037231804084 
-0.0037333341108 -0.0037267394673 -0.0067252731866 -0.0067460349843 -0.0067585303736 -0.0067655467886 -0.006769090834 -0.006770446318 -0.0067703643932 
-0.0067691967973 -0.0067669136607 -0.0067633023368 -0.006757987294 -0.0067504677313 -0.0067400720174 -0.0067259978494 -0.0067073326809 -0.0066829361192 
-0.0066514537662 -0.0066113329463 -0.0065608060362 -0.0064978909782 -0.0064204634164 -0.0063262494175 -0.0062130158024 -0.0060786397277 -0.0059213121751 
-0.0057397880701 -0.0055336092954 -0.0053035533558 -0.0050560469177 -0.0047950470193 -0.0045275169554 -0.0042618226539 -0.0040074871263 -0.0037746892142 
-0.003573489807 -0.003412799648 -0.0032992119174 -0.0032358587004 -0.0032215266453 -0.0032503799869 -0.0033124623415 -0.0033951745354 -0.0034854608573 
-0.003571348043 -0.0036460564654 -0.003705810346 -0.0037487135539 -0.0037747155465 -0.0037840822432 -0.0037766347962 -0.0067367804104 -0.0067606529898 
-0.0067744454502 -0.0067818946943 -0.0067856072831 -0.0067872651693 -0.0067878378413 -0.0067877296502 -0.0067870111777 -0.0067855565578 -0.0067830673798 
-0.006779089867 -0.0067730440998 -0.0067642656488 -0.00675185827 -0.0067347078831 -0.0067114836067 -0.0066805861931 -0.0066401670908 -0.0065880866147 
-0.0065220066157 -0.0064394024718 -0.0063377271978 -0.0062144389349 -0.0060673148927 -0.0058945065217 -0.0056949493565 -0.0054684659934 -0.0052203533883 
-0.00495591679 -0.0046818968197 -0.0044066133213 -0.0041398070591 -0.0038922023238 -0.0036747658173 -0.0034976637788 -0.0033689899374 -0.0032934067133 
-0.0032709829921 -0.003296526496 -0.003359818834 -0.0034469958717 -0.0035429958778 -0.0036344759895 -0.003713143054 -0.0037747930451 -0.0038182308207 
-0.0038441735467 -0.0038531332496 -0.0038449609427 -0.0067643641025 -0.0067907295215 -0.0068057026424 -0.0068137944901 -0.006818137544 -0.0068206966085 
-0.0068225479005 -0.0068241863444 -0.0068258152173 -0.0068273871042 -0.0068286850244 -0.0068293488154 -0.0068289721557 -0.0068269150178 -0.0068223427607 
-0.0068141781259 -0.0068010826098 -0.0067814248838 -0.0067532204376 -0.0067142249943 -0.0066618871431 -0.0065934894012 -0.0065061265818 -0.0063969839347 
-0.0062633264617 -0.0061028733933 -0.0059137980996 -0.0056947958013 -0.0054479741916 -0.0051816402536 -0.0049019518646 -0.0046168491184 -0.0043359832433 
-0.0040704065231 -0.0038319303543 -0.0036321113564 -0.0034809091738 -0.0033851381082 -0.0033469764428 -0.0033628070016 -0.0034229261908 -0.0035125350499 
-0.0036143709828 -0.0037124330903 -0.0037955660497 -0.003860700239 -0.0039054962055 -0.0039319210813 -0.0039408946751 -0.0039322262508 -0.0068108991113 
-0.0068391861975 -0.0068551956135 -0.0068641327975 -0.0068695317599 -0.0068735148875 -0.006877231669 -0.0068813227841 -0.0068860634624 -0.0068915015273 
-0.0068975085904 -0.0069039341654 -0.0069104030518 -0.0069163788132 -0.0069210724312 -0.0069234708757 -0.0069222383633 -0.0069156820107 -0.0069018051057 
-0.0068782706658 -0.0068424269611 -0.0067913895133 -0.0067220886713 -0.0066313926184 -0.0065162881987 -0.0063740628382 -0.0062023249875 -0.0059992151024 
-0.0057587229856 -0.0054951231714 -0.0052134928476 -0.0049208646005 -0.0046262421883 -0.0043405391534 -0.0040761125937 -0.00384585428 -0.0036618620418 
-0.003533780262 -0.0034669709423 -0.0034608253798 -0.0035076853179 -0.0035930950491 -0.0036979223054 -0.0038026362309 -0.0038922626405 -0.0039624449989 
-0.0040102309381 -0.0040381430215 -0.0040479505769 -0.0040394595332 -0.0068786322298 -0.0069083166723 -0.00692526672 -0.0069352522802 -0.0069420678116 
-0.0069479213318 -0.0069540937135 -0.0069612946821 -0.0069698711495 -0.0069799524555 -0.006991630878 -0.0070048046386 -0.0070192260694 -0.0070344222645 
-0.0070497386984 -0.0070642043839 -0.0070765057715 -0.00708504617 -0.0070878623017 -0.0070826577712 -0.0070668496041 -0.0070375143892 -0.006991553121 
-0.0069257120517 -0.0068367584562 -0.0067214825683 -0.0065772164295 -0.0064021733072 -0.0061807783879 -0.0059287836585 -0.0056528215853 -0.0053584337669 
-0.0050531196186 -0.0047468792447 -0.0044520351523 -0.0041825226935 -0.0039526728918 -0.0037755257775 -0.003660770904 -0.003612546824 -0.0036275245785 
-0.0036939707949 -0.003792748542 -0.0039011677096 -0.0039993021419 -0.0040757433457 -0.0041309513494 -0.0041624175165 -0.0041748431242 -0.0041679417057 
-0.0069691730686 -0.0069998107271 -0.0070176503142 -0.0070288626554 -0.007037390547 -0.0070455646516 -0.0070547405169 -0.007065655845 -0.0070787268667 
-0.0070942811696 -0.0071124891217 -0.0071333668722 -0.0071567630564 -0.0071823855243 -0.0072096651696 -0.0072377327776 -0.0072654807141 -0.0072914555092 
-0.0073139465322 -0.007330902743 -0.0073399592402 -0.0073384647091 -0.0073234902711 -0.0072917846889 -0.00723981533 -0.0071638471301 -0.0070600792441 
-0.0069247166187 -0.0067531200509 -0.0065239307713 -0.0062654325651 -0.0059792092299 -0.0056697485681 -0.0053450414808 -0.0050165736267 -0.0046988146718 
-0.0044081742212 -0.0041614079446 -0.0039734859242 -0.0038550308204 -0.0038096051586 -0.003831478038 -0.0039048885608 -0.0040062510307 -0.0041103074909 
-0.0041983612705 -0.0042625270005 -0.0043035080101 -0.004322157298 -0.0043192138398 -0.007083535505 -0.0071147506542 -0.0071334474703 -0.0071460286603 
-0.0071565754391 -0.0071675092751 -0.0071801793918 -0.0071953674031 -0.00721364832 -0.0072354505717 -0.0072610300696 -0.0072905333584 -0.0073240063706 
-0.0073612886166 -0.0074019773901 -0.0074454877459 -0.0074909826515 -0.0075374446579 -0.0075835766547 -0.0076278637313 -0.0076685300274 -0.0077034901265 
-0.0077301778113 -0.0077454675892 -0.0077455117686 -0.0077257818234 -0.0076810610424 -0.007605993653 -0.0074960836597 -0.007323622368 -0.007100200038 
-0.0068366865003 -0.0065333557748 -0.0061951744737 -0.005831967759 -0.0054580969748 -0.0050916532075 -0.0047530807031 -0.0044631573325 -0.0042402978717 
-0.0040973017416 -0.0040379360561 -0.0040542365574 -0.0041261164874 -0.0042252945582 -0.004324295175 -0.0044053757621 -0.0044611023194 -0.0044913270076 
-0.0044956429273 -0.0072221590064 -0.0072536307382 -0.0072731418437 -0.007287246814 -0.0073001391101 -0.0073142249592 -0.0073308582689 -0.0073509364744 
-0.0073751371237 -0.0074039423956 -0.0074377484068 -0.0074769004482 -0.0075216174643 -0.0075719395867 -0.0076278020148 -0.0076890086379 -0.0077552769177 
-0.0078261798532 -0.0079012346389 -0.0079798488211 -0.0080612231576 -0.0081441268597 -0.0082266053577 -0.0083056765513 -0.0083770140361 -0.0084347233921 
-0.0084713868927 -0.0084785519856 -0.0084473564915 -0.0083681957343 -0.0082012092254 -0.0079788229155 -0.0076952306855 -0.0073515358274 -0.0069552326268 
-0.0065199487092 -0.0060648836325 -0.0056137411131 -0.0051930205825 -0.0048295071264 -0.0045468653156 -0.0043613845441 -0.0042774852349 -0.0042842827519 
-0.0043557257939 -0.0044572474401 -0.0045581203162 -0.004638748476 -0.0046857398272 -0.0047012208693 -0.0073849500913 -0.0074163764215 -0.0074366688172 
-0.0074524911787 -0.007468028765 -0.0074856508095 -0.0075067763689 -0.007532386978 -0.0075631952906 -0.0075997959681 -0.0076427861935 -0.0076927010068 
-0.0077499766353 -0.0078150139476 -0.0078882207548 -0.007970019018 -0.0080608555961 -0.0081613271158 -0.0082721482422 -0.0083941083679 -0.0085277497025 
-0.0086730214809 -0.0088287537698 -0.0089920080944 -0.0091574679327 -0.0093171672997 -0.0094606352793 -0.0095754432104 -0.009648423913 -0.0096674909415 
-0.00959686394 -0.009437774949 -0.0091900040982 -0.00885128375 -0.0084266391136 -0.0079285134619 -0.0073765172608 -0.0067967760438 -0.0062207489665 
-0.0056832526174 -0.0052193441347 -0.0048598007315 -0.0046253006861 -0.00452011503 -0.0045275193578 -0.0046110904718 -0.0047260167851 -0.0048332250041 
-0.0049096662901 -0.0049422380911 -0.007571310059 -0.0076024033837 -0.0076234880875 -0.0076412128106 -0.0076596889506 -0.0076812810531 -0.0077074643999 
-0.0077392342214 -0.0077773704893 -0.0078226581794 -0.0078758784074 -0.0079377938371 -0.0080091835567 -0.0080909735851 -0.0081841959317 -0.0082900887618 
-0.00841021855 -0.0085465782994 -0.0087015696479 -0.0088777149794 -0.0090773374794 -0.0093018243159 -0.0095507255927 -0.0098207222165 -0.010104883844 
-0.010392334197 -0.010668462121 -0.010915846485 -0.011115705476 -0.011249533478 -0.011299232768 -0.011223189984 -0.011027344609 -0.010705519016 
-0.01026025235 -0.0097025071026 -0.0090515711701 -0.0083348439344 -0.0075873324365 -0.0068505216972 -0.0061700710265 -0.0055917230065 -0.0051549336685 
-0.0048842767369 -0.0047800999886 -0.0048127091507 -0.0049278290341 -0.0050662302271 -0.0051761574575 -0.0052299241519 -0.0077801745062 -0.0078106928654 
-0.0078325900093 -0.0078523942766 -0.0078741286139 -0.0079001654378 -0.0079319602469 -0.0079705286986 -0.0080167942455 -0.0080717215075 -0.0081363069657 
-0.0082116210063 -0.0082989734655 -0.0083998903428 -0.0085162337122 -0.0086503508708 -0.008805307773 -0.0089849124323 -0.0091935807244 -0.009436088486 
-0.0097167850357 -0.010038526431 -0.010401244982 -0.010800732384 -0.011227650925 -0.011667216203 -0.012099761672 -0.012502043672 -0.012849303733 
-0.013117753773 -0.013287864124 -0.013315786917 -0.01318700012 -0.012894118447 -0.012438137996 -0.011828644018 -0.011083976495 -0.010231463337 
-0.0093076991231 -0.0083585305475 -0.0074380741442 -0.0066058004745 -0.0059205769171 -0.0054307933019 -0.0051609331373 -0.0050979154162 -0.0051863361061 
-0.0053453812186 -0.0054943684608 -0.0055761109337 -0.0080100773932 -0.0080398134106 -0.0080625397739 -0.0080846047279 -0.0081099531844 -0.0081408938144 
-0.0081788433273 -0.0082248868666 -0.0082801172496 -0.0083456793807 -0.0084228439884 -0.0085131558676 -0.0086185052249 -0.0087411767705 -0.0088840736801 
-0.0090510087962 -0.0092468453268 -0.0094775072609 -0.0097499234027 -0.010071339108 -0.010448249795 -0.010884688231 -0.011380619725 -0.011930174314 
-0.012520724107 -0.013132663305 -0.013740401382 -0.01431425587 -0.014822929823 -0.015236442476 -0.015529070343 -0.015671350154 -0.01561946 
-0.01536536622 -0.014909255947 -0.014259622234 -0.013433387374 -0.01245643961 -0.01136467755 -0.010205269132 -0.0090373991172 -0.0079312630104 
-0.0069636019671 -0.006207879067 -0.0057179965808 -0.0055072155748 -0.0055307948692 -0.0056918024786 -0.0058766403799 -0.0059956435212 -0.0082591995666 
-0.0082879611395 -0.0083115280843 -0.0083360545763 -0.0083653549873 -0.0084016220716 -0.0084462561486 -0.0085004645763 -0.0085654851616 -0.0086426903388 
-0.0087337315397 -0.0088407135005 -0.0089661638358 -0.0091133040051 -0.0092863489618 -0.0094907885792 -0.0097335009365 -0.010022952771 -0.010368762239 
-0.010780793013 -0.011267434727 -0.011833720819 -0.012478890801 -0.013194742841 -0.013964405905 -0.014762718083 -0.015557644758 -0.016312562478 
-0.016989485125 -0.017552469102 -0.017970533824 -0.018220729175 -0.018249128015 -0.018039786547 -0.01759313286 -0.016917107081 -0.016027016154 
-0.014946163596 -0.013707477956 -0.012356018803 -0.010951710713 -0.0095708977021 -0.0083044646508 -0.0072495821677 -0.0064923166637 -0.0060805794543 
-0.0059938346532 -0.0061314727136 -0.0063497701952 -0.006508743706 -0.0085254058042 -0.0085530086524 -0.0085774346874 -0.0086046077858 -0.0086381383197 
-0.0086801032784 -0.0087319340547 -0.0087949465505 -0.0088705344455 -0.0089603553664 -0.0090665687026 -0.0091918033517 -0.0093393760078 -0.0095136091389 
-0.0097202040035 -0.0099664079324 -0.010261461655 -0.010616486148 -0.011043904167 -0.011555992212 -0.012162958279 -0.012870134593 -0.013675569843 
-0.014567748858 -0.015525049543 -0.016516211806 -0.017502160678 -0.018439372313 -0.019283404492 -0.019992745681 -0.020532386932 -0.020876985161 
-0.020982155858 -0.020818538979 -0.020388249355 -0.019699568128 -0.01876645372 -0.017608955823 -0.016255113649 -0.014744521015 -0.013133089196 
-0.011497599056 -0.0099373904329 -0.0085692806423 -0.0075111974208 -0.0068513485545 -0.0066060776149 -0.0066867416482 -0.00692315365 -0.0071276161274 
-0.0088062851109 -0.0088325659645 -0.0088578633665 -0.0088878034535 -0.0089257676684 -0.008973745968 -0.0090332135025 -0.0091055601954 -0.0091923728312 
-0.0092957235622 -0.0094182124649 -0.0095630754118 -0.0097345208109 -0.0099381165552 -0.010180999294 -0.010472437828 -0.010824075171 -0.011249731377 
-0.011764438095 -0.012382827798 -0.013116335844 -0.013970239204 -0.014940521851 -0.016012065086 -0.01715787882 -0.018340054198 -0.019512719625 
-0.020625325176 -0.02162722193 -0.022472008578 -0.023121195692 -0.023547143237 -0.023717256801 -0.023594616623 -0.023183646306 -0.0224938892 
-0.02153865858 -0.020334798856 -0.018904368566 -0.01727878498 -0.015505365104 -0.013655056538 -0.011828501437 -0.010155670549 -0.0087828005807 
-0.0078405114994 -0.0073921176317 -0.0073780019329 -0.0076123864839 -0.0078634470185 -0.0090992117529 -0.0091240302938 -0.0091501686946 -0.0091829131088 
-0.0092254325615 -0.0092796564191 -0.0093470507062 -0.0094291006211 -0.0095276841229 -0.0096452391187 -0.0097848029043 -0.0099502975785 -0.010146924998 
-0.010381381859 -0.010662389832 -0.011001247439 -0.01141193817 -0.011910759157 -0.012515280716 -0.013241996048 -0.014103224192 -0.015103537995 
-0.01623662548 -0.017483213099 -0.018810597886 -0.020174567347 -0.021522071887 -0.022796048329 -0.023940189835 -0.024903699644 -0.025645575699 
-0.026137003185 -0.026355911404 -0.026265099828 -0.02587207226 -0.025188793314 -0.024229230173 -0.023008015896 -0.021541291383 -0.019850748191 
-0.017971395267 -0.015962307862 -0.013917544773 -0.011971822619 -0.010293047994 -0.0090524756982 -0.0083667949906 -0.0082213945224 -0.0084315810765 
-0.0087267256043 -0.0094014072834 -0.0094246249119 -0.0094515091289 -0.0094870160158 -0.009534126386 -0.0095946684189 -0.0096701020706 -0.0097620634172 
-0.0098727117005 -0.010004786147 -0.010161804444 -0.010348460097 -0.01057081367 -0.010836712424 -0.011156480703 -0.011543274979 -0.012013184946 
-0.012584858515 -0.013277955686 -0.014110431592 -0.015095051628 -0.016235399467 -0.017522538341 -0.018932831765 -0.02042831982 -0.02195812863 
-0.023462867884 -0.024879145933 -0.02614548404 -0.027207787781 -0.028023084313 -0.028562423325 -0.028812900143 -0.028742316615 -0.028361975384 
-0.027687605535 -0.026735672635 -0.025520593554 -0.024054071501 -0.022348138091 -0.020423293667 -0.018321713506 -0.016123100507 -0.013957388426 
-0.012004986066 -0.010472200205 -0.0095311068528 -0.0092249608413 -0.0093897381027 -0.0097234054367 -0.0097099832227 -0.0097314558379 -0.0097589450379 
-0.0097970962223 -0.0098486873904 -0.0099154405814 -0.0099988312418 -0.010100671251 -0.010223307225 -0.010369782617 -0.010544181642 -0.010751832311 
-0.010999580035 -0.011296447184 -0.011654150218 -0.012087450799 -0.012614332845 -0.013255393531 -0.014031907722 -0.014962934961 -0.016061351426 
-0.01732953784 -0.018755813996 -0.020312757181 -0.021957033039 -0.023632132284 -0.025272462409 -0.026809150599 -0.028176421745 -0.029316840468 
-0.030186436672 -0.030757026699 -0.031023838939 -0.030961408734 -0.030585618566 -0.02991732019 -0.028977645338 -0.027783551563 -0.026345092827 
-0.02466655837 -0.022753788764 -0.020628820152 -0.018350257253 -0.016033557736 -0.013860736785 -0.012064147978 -0.010868468298 -0.010382832831 
-0.01048254017 -0.010842954164 -0.010022010236 -0.010041603689 -0.010069517095 -0.010110086186 -0.01016588467 -0.010238545527 -0.010329592238 
-0.010440929037 -0.010575065125 -0.01073541092 -0.010926506365 -0.011154189759 -0.011426104593 -0.01175226881 -0.012145510177 -0.012621930166 
-0.013201086027 -0.013904960744 -0.014756030213 -0.015774117952 -0.016971900142 -0.018350543984 -0.019896116045 -0.021577663901 -0.023347434212 
-0.025143911333 -0.026896374612 -0.028531318149 -0.029978655605 -0.03117873313 -0.032086803739 -0.032675614105 -0.0329467933 -0.03288177401 
-0.032501155979 -0.031831944746 -0.030901956455 -0.029733779571 -0.028339608477 -0.026719583786 -0.024866972805 -0.022782829674 -0.020499874395 
-0.018110280788 -0.015786036503 -0.013773834841 -0.012343467277 -0.011672260052 -0.011690484003 -0.012063985113 -0.010334596042 -0.010352204377 
-0.01038030722 -0.010422941214 -0.010482513959 -0.010560585011 -0.010658687276 -0.010778768454 -0.010923534999 -0.011096696953 -0.011303120775 
-0.011549130342 -0.011843053853 -0.012195624346 -0.012620499637 -0.013134886569 -0.013759293021 -0.014516613496 -0.015430184572 -0.016520104938 
-0.017798776973 -0.019266412505 -0.020907344752 -0.02268778571 -0.024556843557 -0.026449044893 -0.02828983416 -0.030001433325 -0.031510827385 
-0.032755923696 -0.03369080649 -0.034289214911 -0.03455797472 -0.034482562391 -0.034088418258 -0.033409272028 -0.032481274763 -0.031335354313 