# vtk DataFile Version 4.1
vtk output
ASCII
DATASET STRUCTURED_GRID
DIMENSIONS 51 51 1
POINTS 2601 float
0 0 0 0.02 0 0 0.04 0 0 
0.06 0 0 0.08 0 0 0.1 0 0 
0.12 0 0 0.14 0 0 0.16 0 0 
0.18 0 0 0.2 0 0 0.22 0 0 
0.24 0 0 0.26 0 0 0.28 0 0 
0.3 0 0 0.32 0 0 0.34 0 0 
0.36 0 0 0.38 0 0 0.4 0 0 
0.42 0 0 0.44 0 0 0.46 0 0 
0.48 0 0 0.5 0 0 0.52 0 0 
0.54 0 0 0.56 0 0 0.58 0 0 
0.6 0 0 0.62 0 0 0.64 0 0 
0.66 0 0 0.68 0 0 0.7 0 0 
0.72 0 0 0.74 0 0 0.76 0 0 
0.78 0 0 0.8 0 0 0.82 0 0 
0.84 0 0 0.86 0 0 0.88 0 0 
0.9 0 0 0.92 0 0 0.94 0 0 
0.96 0 0 0.98 0 0 1 0 0 
0 0.02 0 0.02 0.02 0 0.04 0.02 0 
0.06 0.02 0 0.08 0.02 0 0.1 0.02 0 
0.12 0.02 0 0.14 0.02 0 0.16 0.02 0 
0.18 0.02 0 0.2 0.02 0 0.22 0.02 0 
0.24 0.02 0 0.26 0.02 0 0.28 0.02 0 
0.3 0.02 0 0.32 0.02 0 0.34 0.02 0 
0.36 0.02 0 0.38 0.02 0 0.4 0.02 0 
0.42 0.02 0 0.44 0.02 0 0.46 0.02 0 
0.48 0.02 0 0.5 0.02 0 0.52 0.02 0 
0.54 0.02 0 0.56 0.02 0 0.58 0.02 0 
0.6 0.02 0 0.62 0.02 0 0.64 0.02 0 
0.66 0.02 0 0.68 0.02 0 0.7 0.02 0 
0.72 0.02 0 0.74 0.02 0 0.76 0.02 0 
0.78 0.02 0 0.8 0.02 0 0.82 0.02 0 
0.84 0.02 0 0.86 0.02 0 0.88 0.02 0 
0.9 0.02 0 0.92 0.02 0 0.94 0.02 0 
0.96 0.02 0 0.98 0.02 0 1 0.02 0 
0 0.04 0 0.02 0.04 0 0.04 0.04 0 
0.06 0.04 0 0.08 0.04 0 0.1 0.04 0 
0.12 0.04 0 0.14 0.04 0 0.16 0.04 0 
0.18 0.04 0 0.2 0.04 0 0.22 0.04 0 
0.24 0.04 0 0.26 0.04 0 0.28 0.04 0 
0.3 0.04 0 0.32 0.04 0 0.34 0.04 0 
0.36 0.04 0 0.38 0.04 0 0.4 0.04 0 
0.42 0.04 0 0.44 0.04 0 0.46 0.04 0 
0.48 0.04 0 0.5 0.04 0 0.52 0.04 0 
0.54 0.04 0 0.56 0.04 0 0.58 0.04 0 
0.6 0.04 0 0.62 0.04 0 0.64 0.04 0 
0.66 0.04 0 0.68 0.04 0 0.7 0.04 0 
0.72 0.04 0 0.74 0.04 0 0.76 0.04 0 
0.78 0.04 0 0.8 0.04 0 0.82 0.04 0 
0.84 0.04 0 0.86 0.04 0 0.88 0.04 0 
0.9 0.04 0 0.92 0.04 0 0.94 0.04 0 
0.96 0.04 0 0.98 0.04 0 1 0.04 0 
0 0.06 0 0.02 0.06 0 0.04 0.06 0 
0.06 0.06 0 0.08 0.06 0 0.1 0.06 0 
0.12 0.06 0 0.14 0.06 0 0.16 0.06 0 
0.18 0.06 0 0.2 0.06 0 0.22 0.06 0 
0.24 0.06 0 0.26 0.06 0 0.28 0.06 0 
0.3 0.06 0 0.32 0.06 0 0.34 0.06 0 
0.36 0.06 0 0.38 0.06 0 0.4 0.06 0 
0.42 0.06 0 0.44 0.06 0 0.46 0.06 0 
0.48 0.06 0 0.5 0.06 0 0.52 0.06 0 
0.54 0.06 0 0.56 0.06 0 0.58 0.06 0 
0.6 0.06 0 0.62 0.06 0 0.64 0.06 0 
0.66 0.06 0 0.68 0.06 0 0.7 0.06 0 
0.72 0.06 0 0.74 0.06 0 0.76 0.06 0 
0.78 0.06 0 0.8 0.06 0 0.82 0.06 0 
0.84 0.06 0 0.86 0.06 0 0.88 0.06 0 
0.9 0.06 0 0.92 0.06 0 0.94 0.06 0 
0.96 0.06 0 0.98 0.06 0 1 0.06 0 
0 0.08 0 0.02 0.08 0 0.04 0.08 0 
0.06 0.08 0 0.08 0.08 0 0.1 0.08 0 
0.12 0.08 0 0.14 0.08 0 0.16 0.08 0 
0.18 0.08 0 0.2 0.08 0 0.22 0.08 0 
0.24 0.08 0 0.26 0.08 0 0.28 0.08 0 
0.3 0.08 0 0.32 0.08 0 0.34 0.08 0 
0.36 0.08 0 0.38 0.08 0 0.4 0.08 0 
0.42 0.08 0 0.44 0.08 0 0.46 0.08 0 
0.48 0.08 0 0.5 0.08 0 0.52 0.08 0 
0.54 0.08 0 0.56 0.08 0 0.58 0.08 0 
0.6 0.08 0 0.62 0.08 0 0.64 0.08 0 
0.66 0.08 0 0.68 0.08 0 0.7 0.08 0 
0.72 0.08 0 0.74 0.08 0 0.76 0.08 0 
0.78 0.08 0 0.8 0.08 0 0.82 0.08 0 
0.84 0.08 0 0.86 0.08 0 0.88 0.08 0 
0.9 0.08 0 0.92 0.08 0 0.94 0.08 0 
0.96 0.08 0 0.98 0.08 0 1 0.08 0 
0 0.1 0 0.02 0.1 0 0.04 0.1 0 
0.06 0.1 0 0.08 0.1 0 0.1 0.1 0 
0.12 0.1 0 0.14 0.1 0 0.16 0.1 0 
0.18 0.1 0 0.2 0.1 0 0.22 0.1 0 
0.24 0.1 0 0.26 0.1 0 0.28 0.1 0 
0.3 0.1 0 0.32 0.1 0 0.34 0.1 0 
0.36 0.1 0 0.38 0.1 0 0.4 0.1 0 
0.42 0.1 0 0.44 0.1 0 0.46 0.1 0 
0.48 0.1 0 0.5 0.1 0 0.52 0.1 0 
0.54 0.1 0 0.56 0.1 0 0.58 0.1 0 
0.6 0.1 0 0.62 0.1 0 0.64 0.1 0 
0.66 0.1 0 0.68 0.1 0 0.7 0.1 0 
0.72 0.1 0 0.74 0.1 0 0.76 0.1 0 
0.78 0.1 0 0.8 0.1 0 0.82 0.1 0 
0.84 0.1 0 0.86 0.1 0 0.88 0.1 0 
0.9 0.1 0 0.92 0.1 0 0.94 0.1 0 
0.96 0.1 0 0.98 0.1 0 1 0.1 0 
0 0.12 0 0.02 0.12 0 0.04 0.12 0 
0.06 0.12 0 0.08 0.12 0 0.1 0.12 0 
0.12 0.12 0 0.14 0.12 0 0.16 0.12 0 
0.18 0.12 0 0.2 0.12 0 0.22 0.12 0 
0.24 0.12 0 0.26 0.12 0 0.28 0.12 0 
0.3 0.12 0 0.32 0.12 0 0.34 0.12 0 
0.36 0.12 0 0.38 0.12 0 0.4 0.12 0 
0.42 0.12 0 0.44 0.12 0 0.46 0.12 0 
0.48 0.12 0 0.5 0.12 0 0.52 0.12 0 
0.54 0.12 0 0.56 0.12 0 0.58 0.12 0 
0.6 0.12 0 0.62 0.12 0 0.64 0.12 0 
0.66 0.12 0 0.68 0.12 0 0.7 0.12 0 
0.72 0.12 0 0.74 0.12 0 0.76 0.12 0 
0.78 0.12 0 0.8 0.12 0 0.82 0.12 0 
0.84 0.12 0 0.86 0.12 0 0.88 0.12 0 
0.9 0.12 0 0.92 0.12 0 0.94 0.12 0 
0.96 0.12 0 0.98 0.12 0 1 0.12 0 
0 0.14 0 0.02 0.14 0 0.04 0.14 0 
0.06 0.14 0 0.08 0.14 0 0.1 0.14 0 
0.12 0.14 0 0.14 0.14 0 0.16 0.14 0 
0.18 0.14 0 0.2 0.14 0 0.22 0.14 0 
0.24 0.14 0 0.26 0.14 0 0.28 0.14 0 
0.3 0.14 0 0.32 0.14 0 0.34 0.14 0 
0.36 0.14 0 0.38 0.14 0 0.4 0.14 0 
0.42 0.14 0 0.44 0.14 0 0.46 0.14 0 
0.48 0.14 0 0.5 0.14 0 0.52 0.14 0 
0.54 0.14 0 0.56 0.14 0 0.58 0.14 0 
0.6 0.14 0 0.62 0.14 0 0.64 0.14 0 
0.66 0.14 0 0.68 0.14 0 0.7 0.14 0 
0.72 0.14 0 0.74 0.14 0 0.76 0.14 0 
0.78 0.14 0 0.8 0.14 0 0.82 0.14 0 
0.84 0.14 0 0.86 0.14 0 0.88 0.14 0 
0.9 0.14 0 0.92 0.14 0 0.94 0.14 0 
0.96 0.14 0 0.98 0.14 0 1 0.14 0 
0 0.16 0 0.02 0.16 0 0.04 0.16 0 
0.06 0.16 0 0.08 0.16 0 0.1 0.16 0 
0.12 0.16 0 0.14 0.16 0 0.16 0.16 0 
0.18 0.16 0 0.2 0.16 0 0.22 0.16 0 
0.24 0.16 0 0.26 0.16 0 0.28 0.16 0 
0.3 0.16 0 0.32 0.16 0 0.34 0.16 0 
0.36 0.16 0 0.38 0.16 0 0.4 0.16 0 
0.42 0.16 0 0.44 0.16 0 0.46 0.16 0 
0.48 0.16 0 0.5 0.16 0 0.52 0.16 0 
0.54 0.16 0 0.56 0.16 0 0.58 0.16 0 
0.6 0.16 0 0.62 0.16 0 0.64 0.16 0 
0.66 0.16 0 0.68 0.16 0 0.7 0.16 0 
0.72 0.16 0 0.74 0.16 0 0.76 0.16 0 
0.78 0.16 0 0.8 0.16 0 0.82 0.16 0 
0.84 0.16 0 0.86 0.16 0 0.88 0.16 0 
0.9 0.16 0 0.92 0.16 0 0.94 0.16 0 
0.96 0.16 0 0.98 0.16 0 1 0.16 0 
0 0.18 0 0.02 0.18 0 0.04 0.18 0 
0.06 0.18 0 0.08 0.18 0 0.1 0.18 0 
0.12 0.18 0 0.14 0.18 0 0.16 0.18 0 
0.18 0.18 0 0.2 0.18 0 0.22 0.18 0 
0.24 0.18 0 0.26 0.18 0 0.28 0.18 0 
0.3 0.18 0 0.32 0.18 0 0.34 0.18 0 
0.36 0.18 0 0.38 0.18 0 0.4 0.18 0 
0.42 0.18 0 0.44 0.18 0 0.46 0.18 0 
0.48 0.18 0 0.5 0.18 0 0.52 0.18 0 
0.54 0.18 0 0.56 0.18 0 0.58 0.18 0 
0.6 0.18 0 0.62 0.18 0 0.64 0.18 0 
0.66 0.18 0 0.68 0.18 0 0.7 0.18 0 
0.72 0.18 0 0.74 0.18 0 0.76 0.18 0 
0.78 0.18 0 0.8 0.18 0 0.82 0.18 0 
0.84 0.18 0 0.86 0.18 0 0.88 0.18 0 
0.9 0.18 0 0.92 0.18 0 0.94 0.18 0 
0.96 0.18 0 0.98 0.18 0 1 0.18 0 
0 0.2 0 0.02 0.2 0 0.04 0.2 0 
0.06 0.2 0 0.08 0.2 0 0.1 0.2 0 
0.12 0.2 0 0.14 0.2 0 0.16 0.2 0 
0.18 0.2 0 0.2 0.2 0 0.22 0.2 0 
0.24 0.2 0 0.26 0.2 0 0.28 0.2 0 
0.3 0.2 0 0.32 0.2 0 0.34 0.2 0 
0.36 0.2 0 0.38 0.2 0 0.4 0.2 0 
0.42 0.2 0 0.44 0.2 0 0.46 0.2 0 
0.48 0.2 0 0.5 0.2 0 0.52 0.2 0 
0.54 0.2 0 0.56 0.2 0 0.58 0.2 0 
0.6 0.2 0 0.62 0.2 0 0.64 0.2 0 
0.66 0.2 0 0.68 0.2 0 0.7 0.2 0 
0.72 0.2 0 0.74 0.2 0 0.76 0.2 0 
0.78 0.2 0 0.8 0.2 0 0.82 0.2 0 
0.84 0.2 0 0.86 0.2 0 0.88 0.2 0 
0.9 0.2 0 0.92 0.2 0 0.94 0.2 0 
0.96 0.2 0 0.98 0.2 0 1 0.2 0 
0 0.22 0 0.02 0.22 0 0.04 0.22 0 
0.06 0.22 0 0.08 0.22 0 0.1 0.22 0 
0.12 0.22 0 0.14 0.22 0 0.16 0.22 0 
0.18 0.22 0 0.2 0.22 0 0.22 0.22 0 
0.24 0.22 0 0.26 0.22 0 0.28 0.22 0 
0.3 0.22 0 0.32 0.22 0 0.34 0.22 0 
0.36 0.22 0 0.38 0.22 0 0.4 0.22 0 
0.42 0.22 0 0.44 0.22 0 0.46 0.22 0 
0.48 0.22 0 0.5 0.22 0 0.52 0.22 0 
0.54 0.22 0 0.56 0.22 0 0.58 0.22 0 
0.6 0.22 0 0.62 0.22 0 0.64 0.22 0 
0.66 0.22 0 0.68 0.22 0 0.7 0.22 0 
0.72 0.22 0 0.74 0.22 0 0.76 0.22 0 
0.78 0.22 0 0.8 0.22 0 0.82 0.22 0 
0.84 0.22 0 0.86 0.22 0 0.88 0.22 0 
0.9 0.22 0 0.92 0.22 0 0.94 0.22 0 
0.96 0.22 0 0.98 0.22 0 1 0.22 0 
0 0.24 0 0.02 0.24 0 0.04 0.24 0 
0.06 0.24 0 0.08 0.24 0 0.1 0.24 0 
0.12 0.24 0 0.14 0.24 0 0.16 0.24 0 
0.18 0.24 0 0.2 0.24 0 0.22 0.24 0 
0.24 0.24 0 0.26 0.24 0 0.28 0.24 0 
0.3 0.24 0 0.32 0.24 0 0.34 0.24 0 
0.36 0.24 0 0.38 0.24 0 0.4 0.24 0 
0.42 0.24 0 0.44 0.24 0 0.46 0.24 0 
0.48 0.24 0 0.5 0.24 0 0.52 0.24 0 
0.54 0.24 0 0.56 0.24 0 0.58 0.24 0 
0.6 0.24 0 0.62 0.24 0 0.64 0.24 0 
0.66 0.24 0 0.68 0.24 0 0.7 0.24 0 
0.72 0.24 0 0.74 0.24 0 0.76 0.24 0 
0.78 0.24 0 0.8 0.24 0 0.82 0.24 0 
0.84 0.24 0 0.86 0.24 0 0.88 0.24 0 
0.9 0.24 0 0.92 0.24 0 0.94 0.24 0 
0.96 0.24 0 0.98 0.24 0 1 0.24 0 
0 0.26 0 0.02 0.26 0 0.04 0.26 0 
0.06 0.26 0 0.08 0.26 0 0.1 0.26 0 
0.12 0.26 0 0.14 0.26 0 0.16 0.26 0 
0.18 0.26 0 0.2 0.26 0 0.22 0.26 0 
0.24 0.26 0 0.26 0.26 0 0.28 0.26 0 
0.3 0.26 0 0.32 0.26 0 0.34 0.26 0 
0.36 0.26 0 0.38 0.26 0 0.4 0.26 0 
0.42 0.26 0 0.44 0.26 0 0.46 0.26 0 
0.48 0.26 0 0.5 0.26 0 0.52 0.26 0 
0.54 0.26 0 0.56 0.26 0 0.58 0.26 0 
0.6 0.26 0 0.62 0.26 0 0.64 0.26 0 
0.66 0.26 0 0.68 0.26 0 0.7 0.26 0 
0.72 0.26 0 0.74 0.26 0 0.76 0.26 0 
0.78 0.26 0 0.8 0.26 0 0.82 0.26 0 
0.84 0.26 0 0.86 0.26 0 0.88 0.26 0 
0.9 0.26 0 0.92 0.26 0 0.94 0.26 0 
0.96 0.26 0 0.98 0.26 0 1 0.26 0 
0 0.28 0 0.02 0.28 0 0.04 0.28 0 
0.06 0.28 0 0.08 0.28 0 0.1 0.28 0 
0.12 0.28 0 0.14 0.28 0 0.16 0.28 0 
0.18 0.28 0 0.2 0.28 0 0.22 0.28 0 
0.24 0.28 0 0.26 0.28 0 0.28 0.28 0 
0.3 0.28 0 0.32 0.28 0 0.34 0.28 0 
0.36 0.28 0 0.38 0.28 0 0.4 0.28 0 
0.42 0.28 0 0.44 0.28 0 0.46 0.28 0 
0.48 0.28 0 0.5 0.28 0 0.52 0.28 0 
0.54 0.28 0 0.56 0.28 0 0.58 0.28 0 
0.6 0.28 0 0.62 0.28 0 0.64 0.28 0 
0.66 0.28 0 0.68 0.28 0 0.7 0.28 0 
0.72 0.28 0 0.74 0.28 0 0.76 0.28 0 
0.78 0.28 0 0.8 0.28 0 0.82 0.28 0 
0.84 0.28 0 0.86 0.28 0 0.88 0.28 0 
0.9 0.28 0 0.92 0.28 0 0.94 0.28 0 
0.96 0.28 0 0.98 0.28 0 1 0.28 0 
0 0.3 0 0.02 0.3 0 0.04 0.3 0 
0.06 0.3 0 0.08 0.3 0 0.1 0.3 0 
0.12 0.3 0 0.14 0.3 0 0.16 0.3 0 
0.18 0.3 0 0.2 0.3 0 0.22 0.3 0 
0.24 0.3 0 0.26 0.3 0 0.28 0.3 0 
0.3 0.3 0 0.32 0.3 0 0.34 0.3 0 
0.36 0.3 0 0.38 0.3 0 0.4 0.3 0 
0.42 0.3 0 0.44 0.3 0 0.46 0.3 0 
0.48 0.3 0 0.5 0.3 0 0.52 0.3 0 
0.54 0.3 0 0.56 0.3 0 0.58 0.3 0 
0.6 0.3 0 0.62 0.3 0 0.64 0.3 0 
0.66 0.3 0 0.68 0.3 0 0.7 0.3 0 
0.72 0.3 0 0.74 0.3 0 0.76 0.3 0 
0.78 0.3 0 0.8 0.3 0 0.82 0.3 0 
0.84 0.3 0 0.86 0.3 0 0.88 0.3 0 
0.9 0.3 0 0.92 0.3 0 0.94 0.3 0 
0.96 0.3 0 0.98 0.3 0 1 0.3 0 
0 0.32 0 0.02 0.32 0 0.04 0.32 0 
0.06 0.32 0 0.08 0.32 0 0.1 0.32 0 
0.12 0.32 0 0.14 0.32 0 0.16 0.32 0 
0.18 0.32 0 0.2 0.32 0 0.22 0.32 0 
0.24 0.32 0 0.26 0.32 0 0.28 0.32 0 
0.3 0.32 0 0.32 0.32 0 0.34 0.32 0 
0.36 0.32 0 0.38 0.32 0 0.4 0.32 0 
0.42 0.32 0 0.44 0.32 0 0.46 0.32 0 
0.48 0.32 0 0.5 0.32 0 0.52 0.32 0 
0.54 0.32 0 0.56 0.32 0 0.58 0.32 0 
[...]
CELL_DATA 2500
FIELD FieldData 2
pressure 1 2500 double
-0.0069039247856 -0.0069116652839 -0.0069193436362 -0.0069230443681 -0.0069213454679 -0.006914008108 -0.0069012148655 -0.0068831947283 -0.0068600796826 
-0.0068318541444 -0.0067983459465 -0.0067592689444 -0.0067142397149 -0.0066627690489 -0.0066042901876 -0.0065381573947 -0.006463677109 -0.0063801089082 
-0.0062866829702 -0.006182632249 -0.0060672225071 -0.0059398088334 -0.0057998956424 -0.0056471982418 -0.0054817397715 -0.0053039526534 -0.0051147584585 
-0.0049156697459 -0.0047088808708 -0.0044979627122 -0.0042872682684 -0.0040809720339 -0.0038838229132 -0.0037008185551 -0.0035368431448 -0.0033962681733 
-0.0032825347887 -0.0031977744595 -0.0031425138317 -0.003115553725 -0.0031140190325 -0.0031336211664 -0.0031690828392 -0.0032146364702 -0.0032645014077 
-0.0033132763108 -0.0033562202946 -0.0033892208509 -0.0034089871799 -0.0034138148689 -0.0068961946181 -0.0069041357961 -0.0069096771594 -0.0069111655858 
-0.0069078077605 -0.0068993837157 -0.0068859235067 -0.0068675060015 -0.0068441423577 -0.0068157287873 -0.0067820726285 -0.0067428869967 -0.0066977770792 
-0.00664627472 -0.0065878255508 -0.0065218225156 -0.0064476016036 -0.0063644478343 -0.0062716220038 -0.0061683813089 -0.0060540253146 -0.005927932608 
-0.0057896074868 -0.0056387818553 -0.0054754875973 -0.005300133862 -0.0051136150152 -0.004917377213 -0.0047134336845 -0.0045060100239 -0.0042987149066 
-0.0040957715028 -0.0039018781674 -0.0037219452207 -0.0035607643686 -0.0034226143679 -0.0033108492268 -0.0032275067681 -0.0031730400829 -0.0031461672928 
-0.0031439549015 -0.0031620849505 -0.0031952775615 -0.0032378122555 -0.0032840247942 -0.0033287347136 -0.0033675091753 -0.0033969088776 -0.0034144394036 
-0.0034186938891 -0.0068887668697 -0.0068993351038 -0.0069048169319 -0.0069052705487 -0.0069007664636 -0.0068914236536 -0.0068773554009 -0.006858603335 
-0.0068351056556 -0.0068067288914 -0.0067732579874 -0.0067343787836 -0.0066897017427 -0.0066387575994 -0.006581019525 -0.0065159027315 -0.0064427453946 
-0.0063608434689 -0.0062694610018 -0.0061678558252 -0.0060553062234 -0.0059311397757 -0.0057948340145 -0.0056460541437 -0.0054847478309 -0.0053112400981 
-0.0051263297517 -0.0049313868744 -0.0047284799523 -0.0045219925934 -0.0043149809778 -0.0041118525924 -0.0039174488749 -0.0037368386134 -0.0035749945426 
-0.0034363846955 -0.0033245282368 -0.0032415927192 -0.0031880593035 -0.0031625863644 -0.0031620634663 -0.0031819018651 -0.0032165232373 -0.0032599377044 
-0.0033063153731 -0.0033504750767 -0.0033881932947 -0.0034164350515 -0.0034332254204 -0.0034376621727 -0.0068871091496 -0.0069005929853 -0.0069068214119 
-0.0069069736021 -0.0069018425039 -0.0068919306729 -0.0068774989482 -0.0068586155794 -0.0068352323787 -0.0068072068349 -0.006774298657 -0.0067361878569 
-0.0066924790436 -0.0066427245491 -0.0065864174843 -0.0065229569684 -0.0064516894528 -0.0063719080355 -0.0062828571647 -0.0061837530159 -0.0060737981083 
-0.0059522653853 -0.0058185112038 -0.0056720771137 -0.005512765774 -0.0053407307646 -0.0051566057766 -0.0049616167786 -0.0047584700345 -0.0045503842603 
-0.0043409055503 -0.0041345776887 -0.0039364917055 -0.0037520444564 -0.00358658924 -0.0034449928031 -0.0033311564386 -0.003247533306 -0.0031947603511 
-0.0031714455455 -0.0031742173241 -0.0031980505782 -0.0032368235522 -0.0032840111904 -0.0033334061956 -0.0033796393487 -0.0034185375275 -0.0034472909211 
-0.0034643655766 -0.0034693065233 -0.0068949535127 -0.0069109298478 -0.0069180837893 -0.0069183446714 -0.0069130333208 -0.0069029452902 -0.0068884824298 
-0.006869796105 -0.0068468756761 -0.0068195774955 -0.0067876585122 -0.0067507983788 -0.0067086263745 -0.0066607122725 -0.006606524421 -0.0065454766769 
-0.0064769126928 -0.0064000973593 -0.0063142316637 -0.0062184519579 -0.0061118870757 -0.0059936719926 -0.0058630182567 -0.0057192832138 -0.005562041392 
-0.0053912388069 -0.005207301581 -0.0050112834169 -0.0048060520657 -0.0045943146362 -0.0043799972264 -0.0041678593249 -0.0039633393455 -0.0037722955489 
-0.0036006223391 -0.0034537720042 -0.0033362018804 -0.0032508205229 -0.0031985158008 -0.0031778758191 -0.0031852078441 -0.0032148807578 -0.0032599941749 
-0.0033132613987 -0.0033678499563 -0.0034180611575 -0.0034596501755 -0.0034898637747 -0.0035076405296 -0.0035126759295 -0.0069149223223 -0.0069328224073 
-0.0069408420362 -0.0069414407512 -0.0069362893037 -0.0069263890726 -0.0069122712862 -0.0068941710562 -0.0068721074459 -0.0068459476141 -0.0068154627623 
-0.0067803649395 -0.006740304054 -0.0066948262439 -0.0066434229122 -0.0065855092986 -0.006520403492 -0.0064473377648 -0.0063654387297 -0.006273764263 
-0.0061713235913 -0.0060570934841 -0.0059300957857 -0.0057894370087 -0.0056344610234 -0.005464825774 -0.0052806608473 -0.0050827805779 -0.0048738444328 
-0.0046567553201 -0.0044355918202 -0.0042153927289 -0.0040020220088 -0.0038019022144 -0.0036216117432 -0.0034673597587 -0.003344345474 -0.0032561002881 
-0.0032038849929 -0.00318632035 -0.0031993176498 -0.0032364725403 -0.0032898584643 -0.0033511307758 -0.0034126244576 -0.0034681583158 -0.0035132614162 
-0.0035452958276 -0.0035637686325 -0.0035681518915 -0.0069488890212 -0.0069681985535 -0.0069769680786 -0.0069780290379 -0.006973294218 -0.0069639116557 
-0.0069505181256 -0.0069333973787 -0.006912588399 -0.0068879868896 -0.006859403918 -0.0068265816953 -0.0067891528932 -0.0067466941102 -0.0066987066528 
-0.0066445921323 -0.006583653003 -0.0065150546468 -0.0064378626323 -0.0063510485857 -0.0062534630959 -0.0061439202921 -0.0060211973447 -0.0058841797145 
-0.0057318862239 -0.0055636307334 -0.0053791955661 -0.0051790131425 -0.0049653540366 -0.0047416453149 -0.0045120736861 -0.0042819584317 -0.0040576295449 
-0.0038461569457 -0.0036549346509 -0.0034910915156 -0.0033607714969 -0.0032683302215 -0.0032155911189 -0.0032012813143 -0.0032208858766 -0.0032670195585 
-0.003330428014 -0.003401365248 -0.0034710962985 -0.0035329062286 -0.0035813292147 -0.003615441935 -0.0036342871834 -0.0036372334196 -0.0069981783597 
-0.0070184839519 -0.0070278858641 -0.0070294912661 -0.007025382267 -0.0070168217241 -0.0070045031472 -0.0069887263052 -0.0069695631296 -0.0069469511174 
-0.0069207413037 -0.0068906645171 -0.0068563893842 -0.006817513875 -0.006773543858 -0.0067238806385 -0.0066677717008 -0.0066043572615 -0.0065326480883 
-0.0064514803505 -0.0063595797137 -0.0062555555024 -0.0061379919278 -0.006005463189 -0.0058566694509 -0.0056905604755 -0.0055064843236 -0.0053043806715 
-0.005085731354 -0.004854828126 -0.0046159056957 -0.0043745506033 -0.0041375581411 -0.0039126748736 -0.0037081856939 -0.0035322945116 -0.0033923182633 
-0.0032937312932 -0.0032391952609 -0.0032277559731 -0.0032544862747 -0.0033108385141 -0.0033858285526 -0.0034678707178 -0.0035467691356 -0.003614933704 
-0.003666754932 -0.0037026143861 -0.0037212860553 -0.0037221313156 -0.0070636792097 -0.0070846499603 -0.0070945937921 -0.0070968139396 -0.0070935261275 
-0.007086062494 -0.007075124903 -0.0070610402645 -0.0070439158177 -0.0070237306933 -0.007000330305 -0.006973479158 -0.0069428813225 -0.0069081557008 
-0.006868822396 -0.0068242445542 -0.006773685028 -0.0067162587343 -0.0066508807789 -0.0065763031685 -0.0064911164085 -0.0063937643642 -0.0062825942503 
-0.0061559107372 -0.0060120910653 -0.005849702071 -0.0056676424396 -0.0054653234512 -0.0052425246957 -0.0050048965613 -0.0047566797484 -0.0045036457579 
-0.0042529507759 -0.0040129448853 -0.0037927973877 -0.0036018940783 -0.0034489637895 -0.0033409737637 -0.0032818799758 -0.0032714807596 -0.003304712932 
-0.0033718069005 -0.0034596157972 -0.0035540112317 -0.0036428442678 -0.0037168735623 -0.0037722729346 -0.0038091883029 -0.0038270536205 -0.0038253956345 
-0.007145905856 -0.0071672844408 -0.0071777069346 -0.0071806252877 -0.0071783469178 -0.0071722166302 -0.0071629537866 -0.0071509095042 -0.0071362241489 
-0.0071188771763 -0.0070987353431 -0.0070756121046 -0.0070492412331 -0.0070192730296 -0.0069852061021 -0.0069464531985 -0.0069022828667 -0.0068517588103 
-0.0067937623593 -0.0067269782212 -0.0066498790448 -0.0065607786952 -0.0064578080304 -0.0063390422087 -0.0062025583622 -0.0060465725806 -0.0058695925075 
-0.0056704905697 -0.0054465225919 -0.005204317275 -0.0049484456569 -0.0046847521702 -0.0044205239118 -0.0041644563718 -0.0039264167335 -0.0037169319815 
-0.0035463169315 -0.0034234448134 -0.0033542190154 -0.0033400001603 -0.0033763471725 -0.0034526857884 -0.0035534643485 -0.0036611912043 -0.0037604797613 
-0.0038409204066 -0.0038997717073 -0.0039370365209 -0.003953680594 -0.0039495659666 -0.0072450609495 -0.0072666420364 -0.0072775135136 -0.0072812305074 
-0.0072801308483 -0.0072755689451 -0.0072682796648 -0.0072586328353 -0.0072467734466 -0.0072326852864 -0.0072162897391 -0.0071974346344 -0.0071758995754 
-0.0071513284376 -0.0071232911842 -0.0070912396366 -0.007054435551 -0.0070119598643 -0.0069626812024 -0.0069052463422 -0.0068380990318 -0.00675941105 
-0.0066672032177 -0.0065593604115 -0.0064337468413 -0.0062882794605 -0.0061210615766 -0.0059305341273 -0.0057133246173 -0.0054706653952 -0.0052112310797 
-0.004940386982 -0.004665015118 -0.0043936164278 -0.0041362794215 -0.0039043538274 -0.0037096992417 -0.0035634250942 -0.0034741608035 -0.0034460183356 
-0.0034766282286 -0.0035559411439 -0.0036666946341 -0.0037875076599 -0.0038983593774 -0.0039860389904 -0.0040492519912 -0.0040869630896 -0.004102661407 
-0.004096843525 -0.0073610753616 -0.0073826987781 -0.0073940213403 -0.0073986384419 -0.0073988919414 -0.0073961465178 -0.0073911401612 -0.0073842487708 
-0.0073756072036 -0.0073652469149 -0.0073531288856 -0.0073391509708 -0.0073231031359 -0.0073047066599 -0.0072836062072 -0.0072592857351 -0.0072310630886 
-0.0071980617188 -0.0071591960915 -0.0071131790351 -0.007058401233 -0.0069930518332 -0.0069151176655 -0.0068224166985 -0.0067126835983 -0.0065837051126 
-0.0064334157481 -0.0062600187991 -0.0060620052807 -0.0058276215328 -0.0055726295506 -0.0053020614337 -0.0050216458562 -0.004738752318 -0.0044627746415 
-0.0042051586063 -0.0039789107479 -0.0037974653356 -0.0036728832224 -0.0036134347034 -0.0036209074803 -0.0036882582175 -0.0037987780013 -0.003928212791 
-0.0040509896397 -0.0041486169995 -0.0042170705161 -0.0042581531182 -0.0042745475628 -0.0042688207574 -0.0074936482566 -0.0075151940671 -0.0075269849914 
-0.0075326092145 -0.0075344092457 -0.0075337382728 -0.0075313369165 -0.0075275625445 -0.0075225791964 -0.0075164626425 -0.0075092174998 -0.0075007715306 
-0.007490985522 -0.0074796866274 -0.0074665820186 -0.0074512391465 -0.007433075884 -0.0074113213539 -0.0073850576857 -0.0073530205955 -0.0073137672453 
-0.0072656144345 -0.0072066472495 -0.0071347937631 -0.0070478827264 -0.0069437568369 -0.0068203740553 -0.0066757826117 -0.006508543444 -0.0063066598795 
-0.0060688158144 -0.0058114411707 -0.0055374113119 -0.0052515340145 -0.0049611197812 -0.004676510243 -0.004411018515 -0.0041801096597 -0.0039996996694 
-0.0038835564134 -0.0038399975084 -0.0038683764742 -0.0039564717916 -0.0040805764087 -0.0042106178592 -0.0043206203131 -0.0043981768864 -0.0044478232092 
-0.0044689679875 -0.0044665567781 -0.0076422820348 -0.0076636539912 -0.0076759359634 -0.0076826929809 -0.0076862394005 -0.007687919141 -0.0076884496696 
-0.0076881921842 -0.0076873537909 -0.0076860440114 -0.0076843138501 -0.007682150817 -0.0076795388992 -0.0076763936801 -0.007672524107 -0.0076676455386 
-0.0076613176969 -0.0076530331845 -0.007641963473 -0.0076271578097 -0.0076074422338 -0.0075814345069 -0.0075475888819 -0.0075041975954 -0.007449506264 
-0.0073816909159 -0.0072987964893 -0.0071987848915 -0.0070794407235 -0.0069388719976 -0.0067430103374 -0.0065186715862 -0.0062688876426 -0.0059943786055 
-0.005698492633 -0.0053888382729 -0.0050778224961 -0.0047822605071 -0.0045219448509 -0.0043170988694 -0.0041847444664 -0.0041342361897 -0.0041628268165 
-0.0042530080305 -0.0043745192315 -0.0044938185159 -0.0045882220393 -0.0046509562237 -0.0046854660989 -0.004691388457 -0.0078062996748 -0.007827411269 
-0.0078402203491 -0.0078482381697 -0.0078537467843 -0.0078580588161 -0.0078618680489 -0.0078655666347 -0.007869387439 -0.0078734917822 -0.0078779828007 
-0.00788297087 -0.0078885517772 -0.0078947519639 -0.0079015586927 -0.0079088543797 -0.0079165299709 -0.0079242362407 -0.0079315607084 -0.0079379527445 
-0.0079427304354 -0.0079451403396 -0.0079442965547 -0.0079393327839 -0.0079293068551 -0.0079130394809 -0.0078888868581 -0.0078544387758 -0.0078060649956 
-0.0077386461207 -0.0076446102369 -0.0074770541888 -0.0072753191329 -0.0070324251162 -0.0067451305944 -0.0064164429845 -0.0060564859746 -0.005682473412 
-0.0053176433791 -0.0049890061885 -0.0047237583462 -0.0045443160875 -0.0044624300953 -0.0044736440449 -0.0045548639297 -0.0046693061779 -0.0047814389599 
-0.0048703246725 -0.0049260415232 -0.0049467476059 -0.0079848580358 -0.0080056323759 -0.0080190044672 -0.0080284199309 -0.0080361096006 -0.0080433354086 
-0.0080507968815 -0.0080589029024 -0.0080679301237 -0.0080780906134 -0.0080895934415 -0.0081026779282 -0.0081175538798 -0.0081344389756 -0.0081535087274 
-0.008175002677 -0.0081990412823 -0.0082257377965 -0.0082551901918 -0.0082874871141 -0.0083227936539 -0.0083612779375 -0.008403310171 -0.0084493866395 
-0.008499876043 -0.0085546851999 -0.0086126108412 -0.0086705507349 -0.0087228470912 -0.0087609933717 -0.0087745889852 -0.0087297718988 -0.0086063098412 
-0.0084209069571 -0.0081609905063 -0.0078235498472 -0.0074153253164 -0.0069529476003 -0.0064622823566 -0.0059766980324 -0.0055339546434 -0.0051713730921 
-0.0049192155108 -0.0047927491517 -0.0047849947733 -0.0048645271241 -0.00498529557 -0.0051064693458 -0.0051973268526 -0.0052397621142 -0.0081769625171 
-0.0081973242857 -0.0082112983346 -0.0082222468729 -0.0082323222498 -0.0082427544444 -0.0082542415481 -0.0082672196015 -0.0082820131154 -0.0082989135657 
-0.0083182637348 -0.0083404198955 -0.0083657804639 -0.0083947668284 -0.0084278977245 -0.0084657114942 -0.008508786482 -0.008557820901 -0.0086136419098 
-0.0086773175014 -0.0087501360053 -0.0088338301249 -0.0089306144343 -0.0090429221656 -0.009173056502 -0.0093223200743 -0.0094898339425 -0.0096711998729 
-0.0098574734528 -0.010035069016 -0.010186580494 -0.010292942175 -0.010289359583 -0.010192009618 -0.009981624919 -0.0096494716228 -0.0091985048633 
-0.0086439796472 -0.0080132951568 -0.0073449705179 -0.0066864403356 -0.0060900927143 -0.0056068823925 -0.0052770116502 -0.0051183740652 -0.005116114023 
-0.0052218455634 -0.0053722501078 -0.0055065272955 -0.0055810220881 -0.0083814759967 -0.0084013529467 -0.0084159641979 -0.0084285630088 -0.0084412237519 
-0.0084551424157 -0.008471021625 -0.0084893304695 -0.0085104465348 -0.0085347815062 -0.0085628006006 -0.0085950314858 -0.0086320830285 -0.0086746820602 
-0.0087236978191 -0.0087800899824 -0.0088450507945 -0.008920035722 -0.0090068934592 -0.0091079336988 -0.0092261423885 -0.0093654182207 -0.0095303749713 
-0.0097261086121 -0.0099573118177 -0.010226773382 -0.01053357479 -0.010870992017 -0.011225500139 -0.011576639862 -0.011898471978 -0.012161949691 
-0.012326856461 -0.012346212236 -0.012207750618 -0.011897140146 -0.011413615309 -0.01077058595 -0.0099957917907 -0.0091310369304 -0.0082312414689 
-0.0073620896148 -0.0065950018016 -0.0059978589295 -0.0056204622734 -0.0054761720955 -0.0055272763704 -0.0056919359116 -0.0058749091631 -0.0059896240881 
-0.008597131277 -0.008616453763 -0.0086317251895 -0.0086460746186 -0.0086614973503 -0.008679160596 -0.008699772995 -0.0087238314798 -0.0087518041377 
-0.0087842248438 -0.0088217061104 -0.0088649791999 -0.0089149160331 -0.0089726064704 -0.0090393056879 -0.009116557768 -0.0092063000538 -0.0093109684269 
-0.0094336717742 -0.0095783743354 -0.009750349154 -0.0099560962103 -0.010203361578 -0.010500415051 -0.010854536715 -0.011269944314 -0.011744784839 
-0.012269056966 -0.012823141127 -0.013378266174 -0.013898813163 -0.014346397815 -0.01468547838 -0.014846252272 -0.014799591071 -0.014526888775 
-0.014024533726 -0.013304135044 -0.012392705747 -0.011333042792 -0.010184253182 -0.0090216532037 -0.0079342628233 -0.0070172588398 -0.0063564357309 
-0.0060034708311 -0.0059467241103 -0.0060978349972 -0.0063255318867 -0.0064883512192 -0.0088225471312 -0.0088412472529 -0.008857183422 -0.0088733567874 
-0.0088916865317 -0.0089133113919 -0.0089389376217 -0.0089691146931 -0.0090044143066 -0.0090454963677 -0.0090931531862 -0.0091483414427 -0.0092122653909 
-0.00928638303 -0.0093724549938 -0.0094727312353 -0.0095900232541 -0.0097279550228 -0.009891132656 -0.010085715946 -0.010319518177 -0.010602296899 
-0.010945377186 -0.011360417172 -0.011857478454 -0.012441404158 -0.013108816745 -0.013845067808 -0.014623151392 -0.01540476561 -0.016143555396 
-0.016790296797 -0.017298751299 -0.017619157292 -0.017678402555 -0.017457294953 -0.01695119151 -0.016170565809 -0.015140994783 -0.013903938459 
-0.012518707846 -0.011065009859 -0.0096440403413 -0.0083744668306 -0.0073783605792 -0.0067526616219 -0.0065267553707 -0.0066239640176 -0.0068798139086 
-0.0070985286406 -0.0090562459865 -0.0090742510227 -0.0090908367613 -0.0091088738898 -0.0091302098964 -0.0091559456362 -0.0091867965235 -0.0092233785049 
-0.0092663681135 -0.0093165711886 -0.0093749670012 -0.0094427914848 -0.0095216006905 -0.0096132663186 -0.0097201758635 -0.0098453271013 -0.0099925793622 
-0.010166854291 -0.010374667846 -0.010624482341 -0.01092715 -0.01129599053 -0.011746060497 -0.012292732209 -0.012948091057 -0.013717354579 
-0.014594486017 -0.01555918391 -0.016576082789 -0.017596456514 -0.018562766022 -0.019414701891 -0.020095458109 -0.020564844172 -0.0207341411 
-0.020572653939 -0.020076395561 -0.0192559078 -0.018135244775 -0.016752590451 -0.015163328799 -0.01344534758 -0.011704541052 -0.010076038959 
-0.0087143068054 -0.0077641914264 -0.0073083345735 -0.0073027722673 -0.0075621197552 -0.0078407823199 -0.0092966674027 -0.0093139052837 -0.0093311025878 
-0.0093510043656 -0.009375381727 -0.0094052963788 -0.0094414842178 -0.009484635293 -0.0095355367422 -0.0095951376446 -0.0096646417008 -0.0097456000645 
-0.0098399061519 -0.0099499446288 -0.010078734369 -0.010230144356 -0.010409117777 -0.010622101162 -0.010877584245 -0.01118660274 -0.011563197002 
-0.012024285362 -0.012588934013 -0.013275518082 -0.014098081199 -0.015061335652 -0.016155798512 -0.017354819989 -0.018613942932 -0.019873703058 
-0.021065475732 -0.022118366531 -0.022967517668 -0.023562227972 -0.023836898992 -0.023735796404 -0.023258834752 -0.022418568874 -0.021238294079 
-0.019751894885 -0.018007324216 -0.016074338951 -0.014054816754 -0.012090712882 -0.01036101412 -0.009056307732 -0.0083203654255 -0.008162306022 
-0.0083975250206 -0.0087361115117 -0.0095421960484 -0.0095585972155 -0.0095763467147 -0.009598065998 -0.0096254380396 -0.0096594960396 -0.0097010089278 
-0.0097507404094 -0.0098095796388 -0.0098786453784 -0.0099593976524 -0.010053666428 -0.010163743337 -0.010292526788 -0.010443731069 -0.01062209228 
-0.01083371478 -0.011086626314 -0.011391340199 -0.011761483875 -0.012214205458 -0.012770100629 -0.013451643674 -0.014280053251 -0.015270691828 
-0.016427087853 -0.017735953017 -0.019163708797 -0.02065666331 -0.022144999006 -0.023548819784 -0.024787189943 -0.025787148856 -0.026491520719 
-0.026853200346 -0.026804506938 -0.026350063377 -0.025506305389 -0.024297385389 -0.022753178405 -0.02091208163 -0.018830339685 -0.016597007477 
-0.01434963134 -0.01228053433 -0.010619053893 -0.0095725245156 -0.0092197651356 -0.0094031827711 -0.0097936794022 -0.0097911889035 -0.0098066914708 
-0.0098249138061 -0.009848337373 -0.0098785638209 -0.009916613652 -0.0099632886122 -0.010019422576 -0.010086016878 -0.010164377761 -0.010256196168 
-0.010363605577 -0.010489285962 -0.010636678931 -0.010810170101 -0.011015356224 -0.011259510015 -0.011552175222 -0.011905807974 -0.012336459343 
-0.012864229717 -0.013512916383 -0.01430794344 -0.015272908277 -0.016423795066 -0.017762779755 -0.019272351981 -0.020912212854 -0.022620209483 