# vtk DataFile Version 4.1
vtk output
ASCII
DATASET STRUCTURED_GRID
DIMENSIONS 51 51 1
POINTS 2601 float
0 0 0 0.02 0 0 0.04 0 0 
0.06 0 0 0.08 0 0 0.1 0 0 
0.12 0 0 0.14 0 0 0.16 0 0 
0.18 0 0 0.2 0 0 0.22 0 0 
0.24 0 0 0.26 0 0 0.28 0 0 
0.3 0 0 0.32 0 0 0.34 0 0 
0.36 0 0 0.38 0 0 0.4 0 0 
0.42 0 0 0.44 0 0 0.46 0 0 
0.48 0 0 0.5 0 0 0.52 0 0 
0.54 0 0 0.56 0 0 0.58 0 0 
0.6 0 0 0.62 0 0 0.64 0 0 
0.66 0 0 0.68 0 0 0.7 0 0 
0.72 0 0 0.74 0 0 0.76 0 0 
0.78 0 0 0.8 0 0 0.82 0 0 
0.84 0 0 0.86 0 0 0.88 0 0 
0.9 0 0 0.92 0 0 0.94 0 0 
0.96 0 0 0.98 0 0 1 0 0 
0 0.02 0 0.02 0.02 0 0.04 0.02 0 
0.06 0.02 0 0.08 0.02 0 0.1 0.02 0 
0.12 0.02 0 0.14 0.02 0 0.16 0.02 0 
0.18 0.02 0 0.2 0.02 0 0.22 0.02 0 
0.24 0.02 0 0.26 0.02 0 0.28 0.02 0 
0.3 0.02 0 0.32 0.02 0 0.34 0.02 0 
0.36 0.02 0 0.38 0.02 0 0.4 0.02 0 
0.42 0.02 0 0.44 0.02 0 0.46 0.02 0 
0.48 0.02 0 0.5 0.02 0 0.52 0.02 0 
0.54 0.02 0 0.56 0.02 0 0.58 0.02 0 
0.6 0.02 0 0.62 0.02 0 0.64 0.02 0 
0.66 0.02 0 0.68 0.02 0 0.7 0.02 0 
0.72 0.02 0 0.74 0.02 0 0.76 0.02 0 
0.78 0.02 0 0.8 0.02 0 0.82 0.02 0 
0.84 0.02 0 0.86 0.02 0 0.88 0.02 0 
0.9 0.02 0 0.92 0.02 0 0.94 0.02 0 
0.96 0.02 0 0.98 0.02 0 1 0.02 0 
0 0.04 0 0.02 0.04 0 0.04 0.04 0 
0.06 0.04 0 0.08 0.04 0 0.1 0.04 0 
0.12 0.04 0 0.14 0.04 0 0.16 0.04 0 
0.18 0.04 0 0.2 0.04 0 0.22 0.04 0 
0.24 0.04 0 0.26 0.04 0 0.28 0.04 0 
0.3 0.04 0 0.32 0.04 0 0.34 0.04 0 
0.36 0.04 0 0.38 0.04 0 0.4 0.04 0 
0.42 0.04 0 0.44 0.04 0 0.46 0.04 0 
0.48 0.04 0 0.5 0.04 0 0.52 0.04 0 
0.54 0.04 0 0.56 0.04 0 0.58 0.04 0 
0.6 0.04 0 0.62 0.04 0 0.64 0.04 0 
0.66 0.04 0 0.68 0.04 0 0.7 0.04 0 
0.72 0.04 0 0.74 0.04 0 0.76 0.04 0 
0.78 0.04 0 0.8 0.04 0 0.82 0.04 0 
0.84 0.04 0 0.86 0.04 0 0.88 0.04 0 
0.9 0.04 0 0.92 0.04 0 0.94 0.04 0 
0.96 0.04 0 0.98 0.04 0 1 0.04 0 
0 0.06 0 0.02 0.06 0 0.04 0.06 0 
0.06 0.06 0 0.08 0.06 0 0.1 0.06 0 
0.12 0.06 0 0.14 0.06 0 0.16 0.06 0 
0.18 0.06 0 0.2 0.06 0 0.22 0.06 0 
0.24 0.06 0 0.26 0.06 0 0.28 0.06 0 
0.3 0.06 0 0.32 0.06 0 0.34 0.06 0 
0.36 0.06 0 0.38 0.06 0 0.4 0.06 0 
0.42 0.06 0 0.44 0.06 0 0.46 0.06 0 
0.48 0.06 0 0.5 0.06 0 0.52 0.06 0 
0.54 0.06 0 0.56 0.06 0 0.58 0.06 0 
0.6 0.06 0 0.62 0.06 0 0.64 0.06 0 
0.66 0.06 0 0.68 0.06 0 0.7 0.06 0 
0.72 0.06 0 0.74 0.06 0 0.76 0.06 0 
0.78 0.06 0 0.8 0.06 0 0.82 0.06 0 
0.84 0.06 0 0.86 0.06 0 0.88 0.06 0 
0.9 0.06 0 0.92 0.06 0 0.94 0.06 0 
0.96 0.06 0 0.98 0.06 0 1 0.06 0 
0 0.08 0 0.02 0.08 0 0.04 0.08 0 
0.06 0.08 0 0.08 0.08 0 0.1 0.08 0 
0.12 0.08 0 0.14 0.08 0 0.16 0.08 0 
0.18 0.08 0 0.2 0.08 0 0.22 0.08 0 
0.24 0.08 0 0.26 0.08 0 0.28 0.08 0 
0.3 0.08 0 0.32 0.08 0 0.34 0.08 0 
0.36 0.08 0 0.38 0.08 0 0.4 0.08 0 
0.42 0.08 0 0.44 0.08 0 0.46 0.08 0 
0.48 0.08 0 0.5 0.08 0 0.52 0.08 0 
0.54 0.08 0 0.56 0.08 0 0.58 0.08 0 
0.6 0.08 0 0.62 0.08 0 0.64 0.08 0 
0.66 0.08 0 0.68 0.08 0 0.7 0.08 0 
0.72 0.08 0 0.74 0.08 0 0.76 0.08 0 
0.78 0.08 0 0.8 0.08 0 0.82 0.08 0 
0.84 0.08 0 0.86 0.08 0 0.88 0.08 0 
0.9 0.08 0 0.92 0.08 0 0.94 0.08 0 
0.96 0.08 0 0.98 0.08 0 1 0.08 0 
0 0.1 0 0.02 0.1 0 0.04 0.1 0 
0.06 0.1 0 0.08 0.1 0 0.1 0.1 0 
0.12 0.1 0 0.14 0.1 0 0.16 0.1 0 
0.18 0.1 0 0.2 0.1 0 0.22 0.1 0 
0.24 0.1 0 0.26 0.1 0 0.28 0.1 0 
0.3 0.1 0 0.32 0.1 0 0.34 0.1 0 
0.36 0.1 0 0.38 0.1 0 0.4 0.1 0 
0.42 0.1 0 0.44 0.1 0 0.46 0.1 0 
0.48 0.1 0 0.5 0.1 0 0.52 0.1 0 
0.54 0.1 0 0.56 0.1 0 0.58 0.1 0 
0.6 0.1 0 0.62 0.1 0 0.64 0.1 0 
0.66 0.1 0 0.68 0.1 0 0.7 0.1 0 
0.72 0.1 0 0.74 0.1 0 0.76 0.1 0 
0.78 0.1 0 0.8 0.1 0 0.82 0.1 0 
0.84 0.1 0 0.86 0.1 0 0.88 0.1 0 
0.9 0.1 0 0.92 0.1 0 0.94 0.1 0 
0.96 0.1 0 0.98 0.1 0 1 0.1 0 
0 0.12 0 0.02 0.12 0 0.04 0.12 0 
0.06 0.12 0 0.08 0.12 0 0.1 0.12 0 
0.12 0.12 0 0.14 0.12 0 0.16 0.12 0 
0.18 0.12 0 0.2 0.12 0 0.22 0.12 0 
0.24 0.12 0 0.26 0.12 0 0.28 0.12 0 
0.3 0.12 0 0.32 0.12 0 0.34 0.12 0 
0.36 0.12 0 0.38 0.12 0 0.4 0.12 0 
0.42 0.12 0 0.44 0.12 0 0.46 0.12 0 
0.48 0.12 0 0.5 0.12 0 0.52 0.12 0 
0.54 0.12 0 0.56 0.12 0 0.58 0.12 0 
0.6 0.12 0 0.62 0.12 0 0.64 0.12 0 
0.66 0.12 0 0.68 0.12 0 0.7 0.12 0 
0.72 0.12 0 0.74 0.12 0 0.76 0.12 0 
0.78 0.12 0 0.8 0.12 0 0.82 0.12 0 
0.84 0.12 0 0.86 0.12 0 0.88 0.12 0 
0.9 0.12 0 0.92 0.12 0 0.94 0.12 0 
0.96 0.12 0 0.98 0.12 0 1 0.12 0 
0 0.14 0 0.02 0.14 0 0.04 0.14 0 
0.06 0.14 0 0.08 0.14 0 0.1 0.14 0 
0.12 0.14 0 0.14 0.14 0 0.16 0.14 0 
0.18 0.14 0 0.2 0.14 0 0.22 0.14 0 
0.24 0.14 0 0.26 0.14 0 0.28 0.14 0 
0.3 0.14 0 0.32 0.14 0 0.34 0.14 0 
0.36 0.14 0 0.38 0.14 0 0.4 0.14 0 
0.42 0.14 0 0.44 0.14 0 0.46 0.14 0 
0.48 0.14 0 0.5 0.14 0 0.52 0.14 0 
0.54 0.14 0 0.56 0.14 0 0.58 0.14 0 
0.6 0.14 0 0.62 0.14 0 0.64 0.14 0 
0.66 0.14 0 0.68 0.14 0 0.7 0.14 0 
0.72 0.14 0 0.74 0.14 0 0.76 0.14 0 
0.78 0.14 0 0.8 0.14 0 0.82 0.14 0 
0.84 0.14 0 0.86 0.14 0 0.88 0.14 0 
0.9 0.14 0 0.92 0.14 0 0.94 0.14 0 
0.96 0.14 0 0.98 0.14 0 1 0.14 0 
0 0.16 0 0.02 0.16 0 0.04 0.16 0 
0.06 0.16 0 0.08 0.16 0 0.1 0.16 0 
0.12 0.16 0 0.14 0.16 0 0.16 0.16 0 
0.18 0.16 0 0.2 0.16 0 0.22 0.16 0 
0.24 0.16 0 0.26 0.16 0 0.28 0.16 0 
0.3 0.16 0 0.32 0.16 0 0.34 0.16 0 
0.36 0.16 0 0.38 0.16 0 0.4 0.16 0 
0.42 0.16 0 0.44 0.16 0 0.46 0.16 0 
0.48 0.16 0 0.5 0.16 0 0.52 0.16 0 
0.54 0.16 0 0.56 0.16 0 0.58 0.16 0 
0.6 0.16 0 0.62 0.16 0 0.64 0.16 0 
0.66 0.16 0 0.68 0.16 0 0.7 0.16 0 
0.72 0.16 0 0.74 0.16 0 0.76 0.16 0 
0.78 0.16 0 0.8 0.16 0 0.82 0.16 0 
0.84 0.16 0 0.86 0.16 0 0.88 0.16 0 
0.9 0.16 0 0.92 0.16 0 0.94 0.16 0 
0.96 0.16 0 0.98 0.16 0 1 0.16 0 
0 0.18 0 0.02 0.18 0 0.04 0.18 0 
0.06 0.18 0 0.08 0.18 0 0.1 0.18 0 
0.12 0.18 0 0.14 0.18 0 0.16 0.18 0 
0.18 0.18 0 0.2 0.18 0 0.22 0.18 0 
0.24 0.18 0 0.26 0.18 0 0.28 0.18 0 
0.3 0.18 0 0.32 0.18 0 0.34 0.18 0 
0.36 0.18 0 0.38 0.18 0 0.4 0.18 0 
0.42 0.18 0 0.44 0.18 0 0.46 0.18 0 
0.48 0.18 0 0.5 0.18 0 0.52 0.18 0 
0.54 0.18 0 0.56 0.18 0 0.58 0.18 0 
0.6 0.18 0 0.62 0.18 0 0.64 0.18 0 
0.66 0.18 0 0.68 0.18 0 0.7 0.18 0 
0.72 0.18 0 0.74 0.18 0 0.76 0.18 0 
0.78 0.18 0 0.8 0.18 0 0.82 0.18 0 
0.84 0.18 0 0.86 0.18 0 0.88 0.18 0 
0.9 0.18 0 0.92 0.18 0 0.94 0.18 0 
0.96 0.18 0 0.98 0.18 0 1 0.18 0 
0 0.2 0 0.02 0.2 0 0.04 0.2 0 
0.06 0.2 0 0.08 0.2 0 0.1 0.2 0 
0.12 0.2 0 0.14 0.2 0 0.16 0.2 0 
0.18 0.2 0 0.2 0.2 0 0.22 0.2 0 
0.24 0.2 0 0.26 0.2 0 0.28 0.2 0 
0.3 0.2 0 0.32 0.2 0 0.34 0.2 0 
0.36 0.2 0 0.38 0.2 0 0.4 0.2 0 
0.42 0.2 0 0.44 0.2 0 0.46 0.2 0 
0.48 0.2 0 0.5 0.2 0 0.52 0.2 0 
0.54 0.2 0 0.56 0.2 0 0.58 0.2 0 
0.6 0.2 0 0.62 0.2 0 0.64 0.2 0 
0.66 0.2 0 0.68 0.2 0 0.7 0.2 0 
0.72 0.2 0 0.74 0.2 0 0.76 0.2 0 
0.78 0.2 0 0.8 0.2 0 0.82 0.2 0 
0.84 0.2 0 0.86 0.2 0 0.88 0.2 0 
0.9 0.2 0 0.92 0.2 0 0.94 0.2 0 
0.96 0.2 0 0.98 0.2 0 1 0.2 0 
0 0.22 0 0.02 0.22 0 0.04 0.22 0 
0.06 0.22 0 0.08 0.22 0 0.1 0.22 0 
0.12 0.22 0 0.14 0.22 0 0.16 0.22 0 
0.18 0.22 0 0.2 0.22 0 0.22 0.22 0 
0.24 0.22 0 0.26 0.22 0 0.28 0.22 0 
0.3 0.22 0 0.32 0.22 0 0.34 0.22 0 
0.36 0.22 0 0.38 0.22 0 0.4 0.22 0 
0.42 0.22 0 0.44 0.22 0 0.46 0.22 0 
0.48 0.22 0 0.5 0.22 0 0.52 0.22 0 
0.54 0.22 0 0.56 0.22 0 0.58 0.22 0 
0.6 0.22 0 0.62 0.22 0 0.64 0.22 0 
0.66 0.22 0 0.68 0.22 0 0.7 0.22 0 
0.72 0.22 0 0.74 0.22 0 0.76 0.22 0 
0.78 0.22 0 0.8 0.22 0 0.82 0.22 0 
0.84 0.22 0 0.86 0.22 0 0.88 0.22 0 
0.9 0.22 0 0.92 0.22 0 0.94 0.22 0 
0.96 0.22 0 0.98 0.22 0 1 0.22 0 
0 0.24 0 0.02 0.24 0 0.04 0.24 0 
0.06 0.24 0 0.08 0.24 0 0.1 0.24 0 
0.12 0.24 0 0.14 0.24 0 0.16 0.24 0 
0.18 0.24 0 0.2 0.24 0 0.22 0.24 0 
0.24 0.24 0 0.26 0.24 0 0.28 0.24 0 
0.3 0.24 0 0.32 0.24 0 0.34 0.24 0 
0.36 0.24 0 0.38 0.24 0 0.4 0.24 0 
0.42 0.24 0 0.44 0.24 0 0.46 0.24 0 
0.48 0.24 0 0.5 0.24 0 0.52 0.24 0 
0.54 0.24 0 0.56 0.24 0 0.58 0.24 0 
0.6 0.24 0 0.62 0.24 0 0.64 0.24 0 
0.66 0.24 0 0.68 0.24 0 0.7 0.24 0 
0.72 0.24 0 0.74 0.24 0 0.76 0.24 0 
0.78 0.24 0 0.8 0.24 0 0.82 0.24 0 
0.84 0.24 0 0.86 0.24 0 0.88 0.24 0 
0.9 0.24 0 0.92 0.24 0 0.94 0.24 0 
0.96 0.24 0 0.98 0.24 0 1 0.24 0 
0 0.26 0 0.02 0.26 0 0.04 0.26 0 
0.06 0.26 0 0.08 0.26 0 0.1 0.26 0 
0.12 0.26 0 0.14 0.26 0 0.16 0.26 0 
0.18 0.26 0 0.2 0.26 0 0.22 0.26 0 
0.24 0.26 0 0.26 0.26 0 0.28 0.26 0 
0.3 0.26 0 0.32 0.26 0 0.34 0.26 0 
0.36 0.26 0 0.38 0.26 0 0.4 0.26 0 
0.42 0.26 0 0.44 0.26 0 0.46 0.26 0 
0.48 0.26 0 0.5 0.26 0 0.52 0.26 0 
0.54 0.26 0 0.56 0.26 0 0.58 0.26 0 
0.6 0.26 0 0.62 0.26 0 0.64 0.26 0 
0.66 0.26 0 0.68 0.26 0 0.7 0.26 0 
0.72 0.26 0 0.74 0.26 0 0.76 0.26 0 
0.78 0.26 0 0.8 0.26 0 0.82 0.26 0 
0.84 0.26 0 0.86 0.26 0 0.88 0.26 0 
0.9 0.26 0 0.92 0.26 0 0.94 0.26 0 
0.96 0.26 0 0.98 0.26 0 1 0.26 0 
0 0.28 0 0.02 0.28 0 0.04 0.28 0 
0.06 0.28 0 0.08 0.28 0 0.1 0.28 0 
0.12 0.28 0 0.14 0.28 0 0.16 0.28 0 
0.18 0.28 0 0.2 0.28 0 0.22 0.28 0 
0.24 0.28 0 0.26 0.28 0 0.28 0.28 0 
0.3 0.28 0 0.32 0.28 0 0.34 0.28 0 
0.36 0.28 0 0.38 0.28 0 0.4 0.28 0 
0.42 0.28 0 0.44 0.28 0 0.46 0.28 0 
0.48 0.28 0 0.5 0.28 0 0.52 0.28 0 
0.54 0.28 0 0.56 0.28 0 0.58 0.28 0 
0.6 0.28 0 0.62 0.28 0 0.64 0.28 0 
0.66 0.28 0 0.68 0.28 0 0.7 0.28 0 
0.72 0.28 0 0.74 0.28 0 0.76 0.28 0 
0.78 0.28 0 0.8 0.28 0 0.82 0.28 0 
0.84 0.28 0 0.86 0.28 0 0.88 0.28 0 
0.9 0.28 0 0.92 0.28 0 0.94 0.28 0 
0.96 0.28 0 0.98 0.28 0 1 0.28 0 
0 0.3 0 0.02 0.3 0 0.04 0.3 0 
0.06 0.3 0 0.08 0.3 0 0.1 0.3 0 
0.12 0.3 0 0.14 0.3 0 0.16 0.3 0 
0.18 0.3 0 0.2 0.3 0 0.22 0.3 0 
0.24 0.3 0 0.26 0.3 0 0.28 0.3 0 
0.3 0.3 0 0.32 0.3 0 0.34 0.3 0 
0.36 0.3 0 0.38 0.3 0 0.4 0.3 0 
0.42 0.3 0 0.44 0.3 0 0.46 0.3 0 
0.48 0.3 0 0.5 0.3 0 0.52 0.3 0 
0.54 0.3 0 0.56 0.3 0 0.58 0.3 0 
0.6 0.3 0 0.62 0.3 0 0.64 0.3 0 
0.66 0.3 0 0.68 0.3 0 0.7 0.3 0 
0.72 0.3 0 0.74 0.3 0 0.76 0.3 0 
0.78 0.3 0 0.8 0.3 0 0.82 0.3 0 
0.84 0.3 0 0.86 0.3 0 0.88 0.3 0 
0.9 0.3 0 0.92 0.3 0 0.94 0.3 0 
0.96 0.3 0 0.98 0.3 0 1 0.3 0 
0 0.32 0 0.02 0.32 0 0.04 0.32 0 
0.06 0.32 0 0.08 0.32 0 0.1 0.32 0 
0.12 0.32 0 0.14 0.32 0 0.16 0.32 0 
0.18 0.32 0 0.2 0.32 0 0.22 0.32 0 
0.24 0.32 0 0.26 0.32 0 0.28 0.32 0 
0.3 0.32 0 0.32 0.32 0 0.34 0.32 0 
0.36 0.32 0 0.38 0.32 0 0.4 0.32 0 
0.42 0.32 0 0.44 0.32 0 0.46 0.32 0 
0.48 0.32 0 0.5 0.32 0 0.52 0.32 0 
0.54 0.32 0 0.56 0.32 0 0.58 0.32 0 
[...]
CELL_DATA 2500
FIELD FieldData 2
pressure 1 2500 double
-0.0056251541608 -0.0056172051744 -0.0056441861068 -0.005710741056 -0.005810947653 -0.0059370900066 -0.0060839978286 -0.0062494445817 -0.0064342506862 
-0.0066410007281 -0.0068739740748 -0.0071364602094 -0.0074280344885 -0.0077480496071 -0.0080909131546 -0.0084484453413 -0.0088099596193 -0.0091623824415 
-0.0094905029559 -0.0097771585747 -0.010003541202 -0.010149761415 -0.010195674172 -0.010122002955 -0.0099116367882 -0.0095509497486 -0.0090310878584 
-0.00834925604 -0.007510079867 -0.0065271528453 -0.005428770694 -0.0042749115583 -0.0031092103987 -0.0019876352548 -0.00097361566122 -0.00013299939978 
0.00047292598622 0.00079640446991 0.00081341443714 0.00053358477741 3.6600869006e-05 -0.00059538639884 -0.0012620555925 -0.0018666841125 -0.0023438499548 
-0.0026799719271 -0.0028876412962 -0.0029881353425 -0.0030035125583 -0.0029620285724 -0.0056420672781 -0.0056323997019 -0.0056587249294 -0.0057215521967 
-0.0058155478354 -0.0059330945425 -0.0060688956402 -0.0062208019537 -0.0063912269335 -0.0065827957865 -0.0068015356464 -0.007051436641 -0.0073310794948 
-0.0076390656017 -0.0079709294626 -0.0083198210463 -0.0086765051694 -0.0090291463047 -0.0093631550331 -0.0096612697949 -0.009904018296 -0.010070540443 
-0.010139765897 -0.010091704558 -0.0099086972051 -0.0095766281347 -0.0090860255024 -0.0084330518642 -0.0076204258819 -0.0066587087055 -0.0056135943263 
-0.004497488488 -0.0033633763144 -0.0022691509878 -0.0012780807547 -0.0004550303266 0.00014012571327 0.00046138482187 0.00048710396854 0.00023075266538 
-0.00025125644772 -0.00082501185573 -0.001433601728 -0.001979265781 -0.002399942936 -0.0026882712558 -0.0028626475959 -0.0029479898533 -0.0029648502302 
-0.0029223071646 -0.0056241275042 -0.0056116774797 -0.0056408014551 -0.0057072526895 -0.0058013976145 -0.005912649359 -0.0060376543715 -0.0061735559401 
-0.0063283724011 -0.0065081899281 -0.0067176407999 -0.0069604787911 -0.0072372467926 -0.0075466951851 -0.0078855500936 -0.0082481139804 -0.0086257612877 
-0.0090064900606 -0.0093747412985 -0.0097117326713 -0.0099962736169 -0.010205976967 -0.01031856977 -0.010313144798 -0.010171350424 -0.009878408519 
-0.0094239881274 -0.008802833979 -0.008014361577 -0.0071101530705 -0.006092220347 -0.0049986882801 -0.0038794078221 -0.002791854888 -0.0017989634287 
-0.00096517688789 -0.00035015155709 -1.5136356399e-07 6.2331410254e-05 -0.00015064922173 -0.00058427416395 -0.0011405576792 -0.0017069517473 -0.0022194264308 
-0.0025985589566 -0.0028327193551 -0.0029610563614 -0.0030140869265 -0.0030141515341 -0.0029618610475 -0.0055591018345 -0.0055525891855 -0.0055919875894 
-0.0056676132982 -0.0057648123382 -0.0058719941062 -0.0059869227531 -0.0061129059268 -0.0062600774409 -0.0064367110659 -0.0066490467742 -0.0069012834707 
-0.0071951820369 -0.0075305444437 -0.0079047437834 -0.0083119714013 -0.0087425345938 -0.0091824438561 -0.0096136668631 -0.010014956191 -0.010363089994 
-0.010634200067 -0.010805061581 -0.010854261165 -0.010763170708 -0.010516866696 -0.010105085203 -0.0095232168716 -0.0087812004089 -0.0079121431837 
-0.0069196422493 -0.0058429412076 -0.0047299340383 -0.0036363261343 -0.0026234961197 -0.0017547104605 -0.00108924443 -0.00067431040726 -0.00053526144442 
-0.00066551918217 -0.0010193229848 -0.0015126213255 -0.00203845238 -0.0025117519521 -0.0028719538182 -0.0030693956835 -0.0031574434745 -0.0031775001538 
-0.0031585236619 -0.0031044378388 -0.005443299923 -0.0054528745573 -0.0055090694081 -0.0055961583586 -0.0056975118021 -0.0058048804554 -0.005918455801 
-0.0060470597192 -0.0062022000831 -0.0063942517512 -0.0066310447021 -0.0069178123037 -0.0072574554075 -0.0076500461365 -0.0080921322442 -0.0085759583448 
-0.0090888930584 -0.0096136739446 -0.010129244123 -0.010612008863 -0.011037193429 -0.01138013926 -0.011617415507 -0.011727732153 -0.011692856761 
-0.011498561672 -0.011135519743 -0.010600008832 -0.0099138123798 -0.0090758109429 -0.0081087125105 -0.0070472872889 -0.0059358715186 -0.0048268673327 
-0.003778672562 -0.0028522670875 -0.0021059518838 -0.001588083588 -0.0013282108679 -0.0013279579698 -0.0015543777781 -0.0019399104317 -0.0023929247965 
-0.0028187677162 -0.0031346344615 -0.0033315400487 -0.003400308342 -0.0034038135475 -0.0033768144815 -0.0033310548296 -0.0052775120082 -0.0053112133277 
-0.0053863984353 -0.0054848704199 -0.0055965434117 -0.0057128490544 -0.0058401558487 -0.0059901549148 -0.0061758552517 -0.0064088857303 -0.0066981754279 
-0.0070499520226 -0.0074670704561 -0.0079483314485 -0.0084877553461 -0.0090739804037 -0.0096905910474 -0.010316962009 -0.010929526219 -0.011503175023 
-0.012012517446 -0.012432907638 -0.012741298552 -0.012917128306 -0.012943220473 -0.012806739891 -0.012500233769 -0.012022718318 -0.011386626555 
-0.010588093664 -0.0096506026433 -0.0086058970745 -0.0074941731051 -0.0063633753941 -0.0052676456682 -0.0042645310714 -0.0034105697412 -0.0027550893338 
-0.00233252091 -0.002154305056 -0.0022024934937 -0.0024280127706 -0.0027562695396 -0.0031005773484 -0.0033817819451 -0.0035581833775 -0.0036407434699 
-0.0036554073265 -0.0036382507367 -0.0036092382553 -0.0050673970532 -0.0051297447899 -0.0052238588338 -0.0053390657059 -0.0054664427035 -0.0056062667367 
-0.0057672713511 -0.0059623618825 -0.0062052003121 -0.0065078528076 -0.0068798874219 -0.0073271471939 -0.0078509140748 -0.0084471536341 -0.0091059154612 
-0.0098118143998 -0.010544902374 -0.011281976467 -0.011998023983 -0.01266740554 -0.013264812047 -0.013766073669 -0.014148973378 -0.014394066338 
-0.014485586003 -0.014412426626 -0.014169138001 -0.013757086583 -0.013173894227 -0.012420530536 -0.011517604307 -0.010492946082 -0.0093818559656 
-0.0082268450459 -0.0070766568783 -0.0059842524869 -0.0050034249467 -0.00418385633 -0.0035647825659 -0.0031680091591 -0.0029917598594 -0.0030074573771 
-0.0031615831638 -0.0033841529869 -0.0036049074378 -0.0037770041473 -0.0038776354597 -0.0039128235288 -0.0039220537947 -0.0039153258547 -0.0048295076758 
-0.0049228435191 -0.0050360267687 -0.0051706099207 -0.005326309233 -0.0055074965044 -0.005723981439 -0.0059887645111 -0.0063152019026 -0.0067153309736 
-0.0071978258006 -0.00776662412 -0.0084199377321 -0.0091495471798 -0.0099413913214 -0.010776471451 -0.011632239474 -0.01248408712 -0.013306438957 
-0.014073677875 -0.014760921568 -0.01534476304 -0.015804041643 -0.016120691961 -0.016280583035 -0.016274292324 -0.01609791673 -0.015754000676 
-0.015228181419 -0.01452498518 -0.013661877452 -0.012662310089 -0.011556095772 -0.01037951234 -0.0091749089788 -0.0079895266701 -0.0068732347963 
-0.0058749698824 -0.0050378934427 -0.00439368416 -0.0039568948646 -0.0037207733089 -0.0036561720595 -0.0037150672568 -0.0038397393306 -0.0039767466833 
-0.0040890797361 -0.0041769482179 -0.0042245820075 -0.0042427490415 -0.0045916087225 -0.0047139732384 -0.0048469445842 -0.0050094797738 -0.0052074963637 
-0.0054475486985 -0.0057396426063 -0.0060960147534 -0.0065293877755 -0.0070503314687 -0.0076651496242 -0.0083744002869 -0.0091718711569 -0.010045129001 
-0.010976404823 -0.011944058418 -0.012924101667 -0.013891219103 -0.014819699447 -0.015684178131 -0.016460346365 -0.017125736279 -0.017660533741 
-0.018048289586 -0.018276531968 -0.018337336627 -0.018227906638 -0.017951249918 -0.017484994613 -0.016835710019 -0.016017699252 -0.015049841474 
-0.013956114898 -0.012766017354 -0.011514707406 -0.010242641968 -0.0089944458047 -0.0078167791059 -0.0067550967086 -0.0058494279397 -0.0051296229237 
-0.0046108279975 -0.0042901741118 -0.004145742292 -0.0041388712914 -0.0042209169135 -0.004345593671 -0.0044720655537 -0.0045570588402 -0.0046003712632 
-0.0043907321411 -0.0045373146601 -0.004695403985 -0.004894883546 -0.0051472350198 -0.0054604105914 -0.0058439286236 -0.0063091831956 -0.006867089633 
-0.0075253962721 -0.0082866517091 -0.0091466527941 -0.010094744216 -0.01111459127 -0.012185646108 -0.013284680226 -0.014386752041 -0.015466160142 
-0.016497153162 -0.017454661538 -0.018315149761 -0.019057423151 -0.019663277055 -0.020118013285 -0.020410823225 -0.020535099871 -0.020488813663 
-0.020275001233 -0.019867857128 -0.019274664976 -0.018506661606 -0.01757820267 -0.016507376677 -0.015316656743 -0.014033487173 -0.012690642879 
-0.011326153515 -0.0099825724135 -0.0087053973297 -0.0075405405588 -0.0065308788379 -0.0057120513796 -0.0051077734114 -0.0047250151271 -0.0045496377487 
-0.0045439651425 -0.0046498131638 -0.0047990202786 -0.0049331005723 -0.0050044224583 -0.0042695657296 -0.0044390254749 -0.0046244947277 -0.0048669536322 
-0.0051817216916 -0.0055773762006 -0.0060630056655 -0.0066483521307 -0.0073413314416 -0.0081456715776 -0.0090588044366 -0.010071735203 -0.011169596311 
-0.012332994633 -0.01353951489 -0.014764630624 -0.015982661977 -0.017167466515 -0.018293232051 -0.019335422991 -0.020271621546 -0.021082198302 
-0.021750792681 -0.022264574558 -0.022614374954 -0.022794825725 -0.022804531607 -0.022646339343 -0.022295353995 -0.021758682945 -0.021044717658 
-0.02016356514 -0.019127673299 -0.017952604053 -0.016657914929 -0.01526807651 -0.013813303505 -0.01233011874 -0.010861419758 -0.0094557828256 
-0.0081656985664 -0.0070443704471 -0.0061406042585 -0.0054912600099 -0.0051110544462 -0.00498106708 -0.0050418508234 -0.0052032735075 -0.0053784518287 
-0.0054770070906 -0.0042697246063 -0.0044580360515 -0.0046715038709 -0.0049596409996 -0.0053404814275 -0.005823235085 -0.0064161053334 -0.0071261614215 
-0.007957365462 -0.0089081524142 -0.0099708192379 -0.011131800544 -0.012372775747 -0.013672097361 -0.015005620581 -0.016347625949 -0.017671503139 
-0.01895061302 -0.020159336651 -0.021274000399 -0.022273626991 -0.023140437199 -0.023860071581 -0.024421637543 -0.024817693908 -0.025044170795 
-0.025100320802 -0.024988732086 -0.024688902633 -0.024207391112 -0.023550063756 -0.022723270844 -0.021734386939 -0.020592553681 -0.019309676836 
-0.017901701092 -0.016390132156 -0.01480370097 -0.013179963325 -0.011566486471 -0.010021077362 -0.0086102298258 -0.0074046149092 -0.0064701529268 
-0.0058534375313 -0.0055622014559 -0.0055474666613 -0.0057052151069 -0.0059097541605 -0.0060355445579 -0.0044206583613 -0.0046229781671 -0.004863033684 
-0.0051964237859 -0.0056434062964 -0.0062135624808 -0.0069133456429 -0.0077464317775 -0.008711708993 -0.0098023310935 -0.011005761537 -0.012304576424 
-0.013677778964 -0.015101516987 -0.016549928668 -0.017995816763 -0.019411560609 -0.020770269133 -0.022046831856 -0.023218779403 -0.024266857846 
-0.025175293465 -0.025931839728 -0.026527701983 -0.026957308534 -0.027218028783 -0.027309858084 -0.027235156998 -0.026980107262 -0.026550706096 
-0.025950712503 -0.025183410302 -0.02425193968 -0.0231598768 -0.021912168459 -0.020516525795 -0.018985361378 -0.017338276879 -0.015604976912 
-0.013828268709 -0.012066473105 -0.010394082577 -0.0088988746595 -0.0076730798407 -0.0067961452848 -0.0063084256923 -0.0061814465045 -0.0063048734974 
-0.006518378899 -0.0066886877132 -0.0047386512819 -0.0049493161589 -0.0052128619286 -0.0055889309107 -0.0060994019793 -0.0067533805 -0.0075549655169 
-0.0085035005778 -0.0095928222693 -0.010811251013 -0.01214212776 -0.013565007725 -0.01505625629 -0.016589782945 -0.018137690843 -0.019671208036 
-0.021161939239 -0.022583064987 -0.023910326363 -0.025122716215 -0.026202849259 -0.027137070089 -0.027915412825 -0.028531325568 -0.028981270676 
-0.029264206701 -0.029380990345 -0.029333715318 -0.029116484172 -0.028734726803 -0.028190592331 -0.027485113241 -0.026618251641 -0.025589205981 
-0.024397106862 -0.023042290735 -0.021528342457 -0.019865055607 -0.018072335578 -0.016184806808 -0.01425644315 -0.012363859966 -0.010605983791 
-0.0090968156062 -0.0079474890393 -0.0072351987315 -0.0069628970794 -0.0070304095978 -0.0072597367093 -0.0074612837029 -0.0052259680453 -0.0054390707538 
-0.0057222056538 -0.0061371641698 -0.0067062399913 -0.0074373185251 -0.0083313237546 -0.009383230571 -0.010582421675 -0.011913125186 -0.013355516274 
-0.014886236396 -0.016478990867 -0.018105159052 -0.019734711187 -0.021337549475 -0.022884857486 -0.024350224647 -0.025710485856 -0.026946237259 
-0.028042050634 -0.028986546171 -0.029772148933 -0.030394666607 -0.030852696853 -0.031146897317 -0.031279242648 -0.031250606376 -0.03106461098 
-0.03072502223 -0.030233075356 -0.029588468186 -0.02878916882 -0.027831406448 -0.02671001441 -0.025419361536 -0.023955178266 -0.022317594359 
-0.020515608769 -0.018572954368 -0.01653480863 -0.014473950989 -0.012493755909 -0.010723971157 -0.009304118012 -0.0083499982945 -0.0079043957199 
-0.0078900849004 -0.0081157793293 -0.0083529227335 -0.0058722759593 -0.0060824600638 -0.0063813057315 -0.006830549996 -0.0074516696973 -0.0082504331314 
-0.0092243764651 -0.010364763927 -0.011657298805 -0.013083191192 -0.014619697291 -0.016240575523 -0.017916657922 -0.019616715967 -0.021308879017 
-0.0229621238 -0.024547559308 -0.026039430886 -0.027415811268 -0.028658960814 -0.029755569056 -0.030696606248 -0.031476948 -0.03209477689 
-0.0325507687 -0.032847260002 -0.032987391502 -0.032971296767 -0.032810328731 -0.032506719781 -0.032061357672 -0.031473441583 -0.030740101949 
-0.029856085533 -0.028813669811 -0.027603087505 -0.026213851346 -0.024637452965 -0.022871905936 -0.020928384724 -0.018839677781 -0.016669203547 
-0.014517849541 -0.012523980387 -0.010850133308 -0.0096495601294 -0.0090101125434 -0.0088892768228 -0.0090942635437 -0.0093639588777 -0.0066574206823 
-0.0068605073615 -0.0071714489161 -0.0076498070845 -0.0083149950618 -0.0091701265787 -0.010209887831 -0.011422604646 -0.012791422342 -0.014294962461 
-0.015907654196 -0.017600276488 -0.019340744532 -0.021095581658 -0.022831536158 -0.024517044599 -0.026123409832 -0.027625689491 -0.029003239324 
-0.030240162472 -0.03132532025 -0.032252064091 -0.033017689969 -0.033622586544 -0.034069346312 -0.034361791553 -0.034504040388 -0.034497041402 
-0.03435554489 -0.034081486525 -0.033675761186 -0.033137732961 -0.032464694711 -0.031651283464 -0.030688975361 -0.029565919961 -0.028267542774 
-0.026778535308 -0.02508694501 -0.023190982668 -0.021108683871 -0.018889511644 -0.016625252781 -0.014455167944 -0.012557726845 -0.011119690686 
-0.010275982711 -0.010028512548 -0.010196331262 -0.010490665175 -0.0075546743763 -0.0077477052227 -0.0080673145972 -0.0085690474939 -0.0092692795676 
-0.010168672942 -0.011259742517 -0.012528924377 -0.013957408524 -0.015521361944 -0.017192414234 -0.018938357671 -0.020724623134 -0.022516014193 
-0.02427835078 -0.025979832703 -0.027592137435 -0.029091178389 -0.030457789984 -0.031677968645 -0.032742772693 -0.033647897051 -0.03439283616 
-0.034979967941 -0.03541349021 -0.035698399244 -0.035839609956 -0.035839437804 -0.035713024428 -0.03546241777 -0.035088843741 -0.034592305098 
-0.033971000034 -0.033220562296 -0.032333209586 -0.031297006951 -0.030095659831 -0.028709505849 -0.027118651434 -0.025309281255 -0.02328380927 
-0.021074506968 -0.018758317292 -0.016467693494 -0.014388821935 -0.012735680059 -0.011689114903 -0.011302516952 -0.011420932289 -0.011737998928 
-0.0085336566631 -0.0087145386318 -0.0090392842601 -0.009558057601 -0.010283960717 -0.011215657208 -0.012344331647 -0.013655224576 -0.015127719097 
-0.016735635677 -0.018447828785 -0.020229582153 -0.022044445069 -0.023856034799 -0.025629598341 -0.027333314212 -0.028939290457 -0.030424499146 
-0.031771315677 -0.032967655249 -0.034006748582 -0.034886398356 -0.035608072929 -0.036175771699 -0.036594886 -0.036871235246 -0.037010215342 
-0.037015628993 -0.036900912372 -0.036668357657 -0.036319683126 -0.035855791069 -0.035276215938 -0.034578309924 -0.033756180437 -0.032799505624 
-0.031692545186 -0.030414010219 -0.028938864327 -0.027243452783 -0.025315282617 -0.023167855969 -0.020858896052 -0.018506996374 -0.016297379916 
-0.01446311962 -0.01322673174 -0.012696390158 -0.012754624307 -0.013085081146 -0.009562705839 -0.0097296753435 -0.010055563498 -0.010584735291 
-0.011327235978 -0.012280264022 -0.013434306122 -0.014773535367 -0.016275624422 -0.01791209349 -0.019649485229 -0.021451248106 -0.023279656676 
-0.025097570156 -0.026869917497 -0.028564942197 -0.030155383421 -0.031619358188 -0.032940806177 -0.034109553731 -0.03512077544 -0.035974172308 
-0.036672823365 -0.037221915587 -0.03762762891 -0.037896151975 -0.038033039655 -0.038043452193 -0.037937881433 -0.037718881217 -0.037388694649 
-0.036949154186 -0.036401260445 -0.035744413627 -0.034975283029 -0.034086348198 -0.033064312785 -0.031888904234 -0.030533116625 -0.028966593772 
-0.027164138474 -0.025120703875 -0.022872159196 -0.02051741383 -0.01823227512 -0.016259601802 -0.014856561643 -0.014185605 -0.014175770963 
-0.014510935473 -0.010610768902 -0.010761698195 -0.011084171861 -0.011617198483 -0.012368087154 -0.013332978805 -0.014501705831 -0.015857342922 
-0.017375887401 -0.019026933847 -0.020775428827 -0.022583646379 -0.024413099265 -0.026226185113 -0.027987649734 -0.029665997447 -0.031234717123 
-0.032673093778 -0.033966635039 -0.035106867081 -0.036090713802 -0.036919443353 -0.037597322994 -0.038130333785 -0.03852497176 -0.038787412344 
-0.038923073712 -0.038938164123 -0.038839839629 -0.038630865843 -0.038313892711 -0.037891579385 -0.037366301435 -0.03673949116 -0.036010580497 
-0.035175488337 -0.034224668926 -0.03314103918 -0.03189871318 -0.030464291441 -0.028803255618 -0.026893947845 -0.024749697064 -0.022445613021 
-0.0201405491 -0.018077426381 -0.01653897646 -0.015737984632 -0.015655986792 -0.015988123762 -0.011648917521 -0.011780342018 -0.012094537008 
-0.012625421983 -0.01337778252 -0.0143465874 -0.015520753683 -0.016882194554 -0.018405457054 -0.02005890279 -0.021806578604 -0.023610168061 
-0.025430768787 -0.027230509309 -0.028974151634 -0.030630616765 -0.032174181124 -0.033585307406 -0.034850883203 -0.035963943937 -0.036922862485 
-0.037730070841 -0.038390662461 -0.038910974189 -0.03929744999 -0.039555960187 -0.039691445165 -0.039710885329 -0.039618389436 -0.039416751584 
-0.039108884843 -0.038698085901 -0.038187861226 -0.037581438893 -0.036880881571 -0.036085666599 -0.035190629905 -0.034183363386 -0.033041685962 
-0.031732786416 -0.030216912948 -0.02845918082 -0.026451636679 -0.024243489101 -0.021970616536 -0.019866681895 -0.018229675711 -0.017315883227 
-0.017161876781 -0.017484654159 -0.012652280809 -0.012756500657 -0.0130585386 -0.013582414939 -0.014330723121 -0.015296789039 -0.016468366262 
-0.017826229572 -0.019344048511 -0.020989665615 -0.022726847415 -0.024517098056 -0.026321345316 -0.028101665567 -0.029823031223 -0.031454858839 
-0.032972232062 -0.034356633771 -0.035596139639 -0.036685011627 -0.037622686757 -0.038412413717 -0.039059707402 -0.039570914068 -0.039952202956 
-0.04020888807 -0.040345239023 -0.040368326236 -0.040280577652 -0.040084287488 -0.039782425505 -0.039378717245 -0.038877557725 -0.038283653902 
-0.037601328507 -0.036833339526 -0.035978968437 -0.035031191194 -0.033973298404 -0.032776199967 -0.031399152912 -0.029798394 -0.027947646761 
-0.025870230311 -0.023674996103 -0.021578177484 -0.019882390434 -0.018878392367 -0.018656850347 -0.018965712461 -0.013592539339 -0.013672773409 
-0.013951814592 -0.014465036768 -0.015204952854 -0.016162605841 -0.017324533983 -0.018670658843 -0.020174470155 -0.021803922106 -0.023522975423 
-0.025293243159 -0.027075728119 -0.028832686862 -0.030529439374 -0.032135950381 -0.033628000397 -0.034987908238 -0.036204664042 -0.037273386894 
-0.038194219114 -0.038970832116 -0.039608812563 -0.040114321797 -0.040493055871 -0.040749776601 -0.040888367825 -0.040912829177 -0.040829619153 
-0.040637240877 -0.040338965643 -0.039938932727 -0.039442231088 -0.038854695822 -0.038182457074 -0.037431060146 -0.036603846921 -0.035699200209 
-0.034706777859 -0.033603487742 -0.03235141576 -0.030902663901 -0.029216870745 -0.027293436407 -0.025212322455 -0.023165904967 -0.021451313037 
-0.020383380294 -0.020102741994 -0.020395064268 -0.014445342527 -0.014512208056 -0.014763324309 -0.015254246618 -0.015982565821 -0.016926625572 