# vtk DataFile Version 4.1
vtk output
ASCII
DATASET STRUCTURED_GRID
DIMENSIONS 51 51 1
POINTS 2601 float
0 0 0 0.02 0 0 0.04 0 0 
0.06 0 0 0.08 0 0 0.1 0 0 
0.12 0 0 0.14 0 0 0.16 0 0 
0.18 0 0 0.2 0 0 0.22 0 0 
0.24 0 0 0.26 0 0 0.28 0 0 
0.3 0 0 0.32 0 0 0.34 0 0 
0.36 0 0 0.38 0 0 0.4 0 0 
0.42 0 0 0.44 0 0 0.46 0 0 
0.48 0 0 0.5 0 0 0.52 0 0 
0.54 0 0 0.56 0 0 0.58 0 0 
0.6 0 0 0.62 0 0 0.64 0 0 
0.66 0 0 0.68 0 0 0.7 0 0 
0.72 0 0 0.74 0 0 0.76 0 0 
0.78 0 0 0.8 0 0 0.82 0 0 
0.84 0 0 0.86 0 0 0.88 0 0 
0.9 0 0 0.92 0 0 0.94 0 0 
0.96 0 0 0.98 0 0 1 0 0 
0 0.02 0 0.02 0.02 0 0.04 0.02 0 
0.06 0.02 0 0.08 0.02 0 0.1 0.02 0 
0.12 0.02 0 0.14 0.02 0 0.16 0.02 0 
0.18 0.02 0 0.2 0.02 0 0.22 0.02 0 
0.24 0.02 0 0.26 0.02 0 0.28 0.02 0 
0.3 0.02 0 0.32 0.02 0 0.34 0.02 0 
0.36 0.02 0 0.38 0.02 0 0.4 0.02 0 
0.42 0.02 0 0.44 0.02 0 0.46 0.02 0 
0.48 0.02 0 0.5 0.02 0 0.52 0.02 0 
0.54 0.02 0 0.56 0.02 0 0.58 0.02 0 
0.6 0.02 0 0.62 0.02 0 0.64 0.02 0 
0.66 0.02 0 0.68 0.02 0 0.7 0.02 0 
0.72 0.02 0 0.74 0.02 0 0.76 0.02 0 
0.78 0.02 0 0.8 0.02 0 0.82 0.02 0 
0.84 0.02 0 0.86 0.02 0 0.88 0.02 0 
0.9 0.02 0 0.92 0.02 0 0.94 0.02 0 
0.96 0.02 0 0.98 0.02 0 1 0.02 0 
0 0.04 0 0.02 0.04 0 0.04 0.04 0 
0.06 0.04 0 0.08 0.04 0 0.1 0.04 0 
0.12 0.04 0 0.14 0.04 0 0.16 0.04 0 
0.18 0.04 0 0.2 0.04 0 0.22 0.04 0 
0.24 0.04 0 0.26 0.04 0 0.28 0.04 0 
0.3 0.04 0 0.32 0.04 0 0.34 0.04 0 
0.36 0.04 0 0.38 0.04 0 0.4 0.04 0 
0.42 0.04 0 0.44 0.04 0 0.46 0.04 0 
0.48 0.04 0 0.5 0.04 0 0.52 0.04 0 
0.54 0.04 0 0.56 0.04 0 0.58 0.04 0 
0.6 0.04 0 0.62 0.04 0 0.64 0.04 0 
0.66 0.04 0 0.68 0.04 0 0.7 0.04 0 
0.72 0.04 0 0.74 0.04 0 0.76 0.04 0 
0.78 0.04 0 0.8 0.04 0 0.82 0.04 0 
0.84 0.04 0 0.86 0.04 0 0.88 0.04 0 
0.9 0.04 0 0.92 0.04 0 0.94 0.04 0 
0.96 0.04 0 0.98 0.04 0 1 0.04 0 
0 0.06 0 0.02 0.06 0 0.04 0.06 0 
0.06 0.06 0 0.08 0.06 0 0.1 0.06 0 
0.12 0.06 0 0.14 0.06 0 0.16 0.06 0 
0.18 0.06 0 0.2 0.06 0 0.22 0.06 0 
0.24 0.06 0 0.26 0.06 0 0.28 0.06 0 
0.3 0.06 0 0.32 0.06 0 0.34 0.06 0 
0.36 0.06 0 0.38 0.06 0 0.4 0.06 0 
0.42 0.06 0 0.44 0.06 0 0.46 0.06 0 
0.48 0.06 0 0.5 0.06 0 0.52 0.06 0 
0.54 0.06 0 0.56 0.06 0 0.58 0.06 0 
0.6 0.06 0 0.62 0.06 0 0.64 0.06 0 
0.66 0.06 0 0.68 0.06 0 0.7 0.06 0 
0.72 0.06 0 0.74 0.06 0 0.76 0.06 0 
0.78 0.06 0 0.8 0.06 0 0.82 0.06 0 
0.84 0.06 0 0.86 0.06 0 0.88 0.06 0 
0.9 0.06 0 0.92 0.06 0 0.94 0.06 0 
0.96 0.06 0 0.98 0.06 0 1 0.06 0 
0 0.08 0 0.02 0.08 0 0.04 0.08 0 
0.06 0.08 0 0.08 0.08 0 0.1 0.08 0 
0.12 0.08 0 0.14 0.08 0 0.16 0.08 0 
0.18 0.08 0 0.2 0.08 0 0.22 0.08 0 
0.24 0.08 0 0.26 0.08 0 0.28 0.08 0 
0.3 0.08 0 0.32 0.08 0 0.34 0.08 0 
0.36 0.08 0 0.38 0.08 0 0.4 0.08 0 
0.42 0.08 0 0.44 0.08 0 0.46 0.08 0 
0.48 0.08 0 0.5 0.08 0 0.52 0.08 0 
0.54 0.08 0 0.56 0.08 0 0.58 0.08 0 
0.6 0.08 0 0.62 0.08 0 0.64 0.08 0 
0.66 0.08 0 0.68 0.08 0 0.7 0.08 0 
0.72 0.08 0 0.74 0.08 0 0.76 0.08 0 
0.78 0.08 0 0.8 0.08 0 0.82 0.08 0 
0.84 0.08 0 0.86 0.08 0 0.88 0.08 0 
0.9 0.08 0 0.92 0.08 0 0.94 0.08 0 
0.96 0.08 0 0.98 0.08 0 1 0.08 0 
0 0.1 0 0.02 0.1 0 0.04 0.1 0 
0.06 0.1 0 0.08 0.1 0 0.1 0.1 0 
0.12 0.1 0 0.14 0.1 0 0.16 0.1 0 
0.18 0.1 0 0.2 0.1 0 0.22 0.1 0 
0.24 0.1 0 0.26 0.1 0 0.28 0.1 0 
0.3 0.1 0 0.32 0.1 0 0.34 0.1 0 
0.36 0.1 0 0.38 0.1 0 0.4 0.1 0 
0.42 0.1 0 0.44 0.1 0 0.46 0.1 0 
0.48 0.1 0 0.5 0.1 0 0.52 0.1 0 
0.54 0.1 0 0.56 0.1 0 0.58 0.1 0 
0.6 0.1 0 0.62 0.1 0 0.64 0.1 0 
0.66 0.1 0 0.68 0.1 0 0.7 0.1 0 
0.72 0.1 0 0.74 0.1 0 0.76 0.1 0 
0.78 0.1 0 0.8 0.1 0 0.82 0.1 0 
0.84 0.1 0 0.86 0.1 0 0.88 0.1 0 
0.9 0.1 0 0.92 0.1 0 0.94 0.1 0 
0.96 0.1 0 0.98 0.1 0 1 0.1 0 
0 0.12 0 0.02 0.12 0 0.04 0.12 0 
0.06 0.12 0 0.08 0.12 0 0.1 0.12 0 
0.12 0.12 0 0.14 0.12 0 0.16 0.12 0 
0.18 0.12 0 0.2 0.12 0 0.22 0.12 0 
0.24 0.12 0 0.26 0.12 0 0.28 0.12 0 
0.3 0.12 0 0.32 0.12 0 0.34 0.12 0 
0.36 0.12 0 0.38 0.12 0 0.4 0.12 0 
0.42 0.12 0 0.44 0.12 0 0.46 0.12 0 
0.48 0.12 0 0.5 0.12 0 0.52 0.12 0 
0.54 0.12 0 0.56 0.12 0 0.58 0.12 0 
0.6 0.12 0 0.62 0.12 0 0.64 0.12 0 
0.66 0.12 0 0.68 0.12 0 0.7 0.12 0 
0.72 0.12 0 0.74 0.12 0 0.76 0.12 0 
0.78 0.12 0 0.8 0.12 0 0.82 0.12 0 
0.84 0.12 0 0.86 0.12 0 0.88 0.12 0 
0.9 0.12 0 0.92 0.12 0 0.94 0.12 0 
0.96 0.12 0 0.98 0.12 0 1 0.12 0 
0 0.14 0 0.02 0.14 0 0.04 0.14 0 
0.06 0.14 0 0.08 0.14 0 0.1 0.14 0 
0.12 0.14 0 0.14 0.14 0 0.16 0.14 0 
0.18 0.14 0 0.2 0.14 0 0.22 0.14 0 
0.24 0.14 0 0.26 0.14 0 0.28 0.14 0 
0.3 0.14 0 0.32 0.14 0 0.34 0.14 0 
0.36 0.14 0 0.38 0.14 0 0.4 0.14 0 
0.42 0.14 0 0.44 0.14 0 0.46 0.14 0 
0.48 0.14 0 0.5 0.14 0 0.52 0.14 0 
0.54 0.14 0 0.56 0.14 0 0.58 0.14 0 
0.6 0.14 0 0.62 0.14 0 0.64 0.14 0 
0.66 0.14 0 0.68 0.14 0 0.7 0.14 0 
0.72 0.14 0 0.74 0.14 0 0.76 0.14 0 
0.78 0.14 0 0.8 0.14 0 0.82 0.14 0 
0.84 0.14 0 0.86 0.14 0 0.88 0.14 0 
0.9 0.14 0 0.92 0.14 0 0.94 0.14 0 
0.96 0.14 0 0.98 0.14 0 1 0.14 0 
0 0.16 0 0.02 0.16 0 0.04 0.16 0 
0.06 0.16 0 0.08 0.16 0 0.1 0.16 0 
0.12 0.16 0 0.14 0.16 0 0.16 0.16 0 
0.18 0.16 0 0.2 0.16 0 0.22 0.16 0 
0.24 0.16 0 0.26 0.16 0 0.28 0.16 0 
0.3 0.16 0 0.32 0.16 0 0.34 0.16 0 
0.36 0.16 0 0.38 0.16 0 0.4 0.16 0 
0.42 0.16 0 0.44 0.16 0 0.46 0.16 0 
0.48 0.16 0 0.5 0.16 0 0.52 0.16 0 
0.54 0.16 0 0.56 0.16 0 0.58 0.16 0 
0.6 0.16 0 0.62 0.16 0 0.64 0.16 0 
0.66 0.16 0 0.68 0.16 0 0.7 0.16 0 
0.72 0.16 0 0.74 0.16 0 0.76 0.16 0 
0.78 0.16 0 0.8 0.16 0 0.82 0.16 0 
0.84 0.16 0 0.86 0.16 0 0.88 0.16 0 
0.9 0.16 0 0.92 0.16 0 0.94 0.16 0 
0.96 0.16 0 0.98 0.16 0 1 0.16 0 
0 0.18 0 0.02 0.18 0 0.04 0.18 0 
0.06 0.18 0 0.08 0.18 0 0.1 0.18 0 
0.12 0.18 0 0.14 0.18 0 0.16 0.18 0 
0.18 0.18 0 0.2 0.18 0 0.22 0.18 0 
0.24 0.18 0 0.26 0.18 0 0.28 0.18 0 
0.3 0.18 0 0.32 0.18 0 0.34 0.18 0 
0.36 0.18 0 0.38 0.18 0 0.4 0.18 0 
0.42 0.18 0 0.44 0.18 0 0.46 0.18 0 
0.48 0.18 0 0.5 0.18 0 0.52 0.18 0 
0.54 0.18 0 0.56 0.18 0 0.58 0.18 0 
0.6 0.18 0 0.62 0.18 0 0.64 0.18 0 
0.66 0.18 0 0.68 0.18 0 0.7 0.18 0 
0.72 0.18 0 0.74 0.18 0 0.76 0.18 0 
0.78 0.18 0 0.8 0.18 0 0.82 0.18 0 
0.84 0.18 0 0.86 0.18 0 0.88 0.18 0 
0.9 0.18 0 0.92 0.18 0 0.94 0.18 0 
0.96 0.18 0 0.98 0.18 0 1 0.18 0 
0 0.2 0 0.02 0.2 0 0.04 0.2 0 
0.06 0.2 0 0.08 0.2 0 0.1 0.2 0 
0.12 0.2 0 0.14 0.2 0 0.16 0.2 0 
0.18 0.2 0 0.2 0.2 0 0.22 0.2 0 
0.24 0.2 0 0.26 0.2 0 0.28 0.2 0 
0.3 0.2 0 0.32 0.2 0 0.34 0.2 0 
0.36 0.2 0 0.38 0.2 0 0.4 0.2 0 
0.42 0.2 0 0.44 0.2 0 0.46 0.2 0 
0.48 0.2 0 0.5 0.2 0 0.52 0.2 0 
0.54 0.2 0 0.56 0.2 0 0.58 0.2 0 
0.6 0.2 0 0.62 0.2 0 0.64 0.2 0 
0.66 0.2 0 0.68 0.2 0 0.7 0.2 0 
0.72 0.2 0 0.74 0.2 0 0.76 0.2 0 
0.78 0.2 0 0.8 0.2 0 0.82 0.2 0 
0.84 0.2 0 0.86 0.2 0 0.88 0.2 0 
0.9 0.2 0 0.92 0.2 0 0.94 0.2 0 
0.96 0.2 0 0.98 0.2 0 1 0.2 0 
0 0.22 0 0.02 0.22 0 0.04 0.22 0 
0.06 0.22 0 0.08 0.22 0 0.1 0.22 0 
0.12 0.22 0 0.14 0.22 0 0.16 0.22 0 
0.18 0.22 0 0.2 0.22 0 0.22 0.22 0 
0.24 0.22 0 0.26 0.22 0 0.28 0.22 0 
0.3 0.22 0 0.32 0.22 0 0.34 0.22 0 
0.36 0.22 0 0.38 0.22 0 0.4 0.22 0 
0.42 0.22 0 0.44 0.22 0 0.46 0.22 0 
0.48 0.22 0 0.5 0.22 0 0.52 0.22 0 
0.54 0.22 0 0.56 0.22 0 0.58 0.22 0 
0.6 0.22 0 0.62 0.22 0 0.64 0.22 0 
0.66 0.22 0 0.68 0.22 0 0.7 0.22 0 
0.72 0.22 0 0.74 0.22 0 0.76 0.22 0 
0.78 0.22 0 0.8 0.22 0 0.82 0.22 0 
0.84 0.22 0 0.86 0.22 0 0.88 0.22 0 
0.9 0.22 0 0.92 0.22 0 0.94 0.22 0 
0.96 0.22 0 0.98 0.22 0 1 0.22 0 
0 0.24 0 0.02 0.24 0 0.04 0.24 0 
0.06 0.24 0 0.08 0.24 0 0.1 0.24 0 
0.12 0.24 0 0.14 0.24 0 0.16 0.24 0 
0.18 0.24 0 0.2 0.24 0 0.22 0.24 0 
0.24 0.24 0 0.26 0.24 0 0.28 0.24 0 
0.3 0.24 0 0.32 0.24 0 0.34 0.24 0 
0.36 0.24 0 0.38 0.24 0 0.4 0.24 0 
0.42 0.24 0 0.44 0.24 0 0.46 0.24 0 
0.48 0.24 0 0.5 0.24 0 0.52 0.24 0 
0.54 0.24 0 0.56 0.24 0 0.58 0.24 0 
0.6 0.24 0 0.62 0.24 0 0.64 0.24 0 
0.66 0.24 0 0.68 0.24 0 0.7 0.24 0 
0.72 0.24 0 0.74 0.24 0 0.76 0.24 0 
0.78 0.24 0 0.8 0.24 0 0.82 0.24 0 
0.84 0.24 0 0.86 0.24 0 0.88 0.24 0 
0.9 0.24 0 0.92 0.24 0 0.94 0.24 0 
0.96 0.24 0 0.98 0.24 0 1 0.24 0 
0 0.26 0 0.02 0.26 0 0.04 0.26 0 
0.06 0.26 0 0.08 0.26 0 0.1 0.26 0 
0.12 0.26 0 0.14 0.26 0 0.16 0.26 0 
0.18 0.26 0 0.2 0.26 0 0.22 0.26 0 
0.24 0.26 0 0.26 0.26 0 0.28 0.26 0 
0.3 0.26 0 0.32 0.26 0 0.34 0.26 0 
0.36 0.26 0 0.38 0.26 0 0.4 0.26 0 
0.42 0.26 0 0.44 0.26 0 0.46 0.26 0 
0.48 0.26 0 0.5 0.26 0 0.52 0.26 0 
0.54 0.26 0 0.56 0.26 0 0.58 0.26 0 
0.6 0.26 0 0.62 0.26 0 0.64 0.26 0 
0.66 0.26 0 0.68 0.26 0 0.7 0.26 0 
0.72 0.26 0 0.74 0.26 0 0.76 0.26 0 
0.78 0.26 0 0.8 0.26 0 0.82 0.26 0 
0.84 0.26 0 0.86 0.26 0 0.88 0.26 0 
0.9 0.26 0 0.92 0.26 0 0.94 0.26 0 
0.96 0.26 0 0.98 0.26 0 1 0.26 0 
0 0.28 0 0.02 0.28 0 0.04 0.28 0 
0.06 0.28 0 0.08 0.28 0 0.1 0.28 0 
0.12 0.28 0 0.14 0.28 0 0.16 0.28 0 
0.18 0.28 0 0.2 0.28 0 0.22 0.28 0 
0.24 0.28 0 0.26 0.28 0 0.28 0.28 0 
0.3 0.28 0 0.32 0.28 0 0.34 0.28 0 
0.36 0.28 0 0.38 0.28 0 0.4 0.28 0 
0.42 0.28 0 0.44 0.28 0 0.46 0.28 0 
0.48 0.28 0 0.5 0.28 0 0.52 0.28 0 
0.54 0.28 0 0.56 0.28 0 0.58 0.28 0 
0.6 0.28 0 0.62 0.28 0 0.64 0.28 0 
0.66 0.28 0 0.68 0.28 0 0.7 0.28 0 
0.72 0.28 0 0.74 0.28 0 0.76 0.28 0 
0.78 0.28 0 0.8 0.28 0 0.82 0.28 0 
0.84 0.28 0 0.86 0.28 0 0.88 0.28 0 
0.9 0.28 0 0.92 0.28 0 0.94 0.28 0 
0.96 0.28 0 0.98 0.28 0 1 0.28 0 
0 0.3 0 0.02 0.3 0 0.04 0.3 0 
0.06 0.3 0 0.08 0.3 0 0.1 0.3 0 
0.12 0.3 0 0.14 0.3 0 0.16 0.3 0 
0.18 0.3 0 0.2 0.3 0 0.22 0.3 0 
0.24 0.3 0 0.26 0.3 0 0.28 0.3 0 
0.3 0.3 0 0.32 0.3 0 0.34 0.3 0 
0.36 0.3 0 0.38 0.3 0 0.4 0.3 0 
0.42 0.3 0 0.44 0.3 0 0.46 0.3 0 
0.48 0.3 0 0.5 0.3 0 0.52 0.3 0 
0.54 0.3 0 0.56 0.3 0 0.58 0.3 0 
0.6 0.3 0 0.62 0.3 0 0.64 0.3 0 
0.66 0.3 0 0.68 0.3 0 0.7 0.3 0 
0.72 0.3 0 0.74 0.3 0 0.76 0.3 0 
0.78 0.3 0 0.8 0.3 0 0.82 0.3 0 
0.84 0.3 0 0.86 0.3 0 0.88 0.3 0 
0.9 0.3 0 0.92 0.3 0 0.94 0.3 0 
0.96 0.3 0 0.98 0.3 0 1 0.3 0 
0 0.32 0 0.02 0.32 0 0.04 0.32 0 
0.06 0.32 0 0.08 0.32 0 0.1 0.32 0 
0.12 0.32 0 0.14 0.32 0 0.16 0.32 0 
0.18 0.32 0 0.2 0.32 0 0.22 0.32 0 
0.24 0.32 0 0.26 0.32 0 0.28 0.32 0 
0.3 0.32 0 0.32 0.32 0 0.34 0.32 0 
0.36 0.32 0 0.38 0.32 0 0.4 0.32 0 
0.42 0.32 0 0.44 0.32 0 0.46 0.32 0 
0.48 0.32 0 0.5 0.32 0 0.52 0.32 0 
0.54 0.32 0 0.56 0.32 0 0.58 0.32 0 
[...]
CELL_DATA 2500
FIELD FieldData 2
pressure 1 2500 double
-0.0056962637353 -0.0056919579519 -0.005718119131 -0.0057795842228 -0.00587195065 -0.0059893318484 -0.0061280754562 -0.0062867704328 -0.0064661178669 
-0.0066673930768 -0.0068934503364 -0.0071457817819 -0.0074236976233 -0.0077271618622 -0.0080514539387 -0.0083899208836 -0.0087329602618 -0.0090681540677 
-0.0093805775672 -0.0096532225334 -0.0098675425392 -0.010004144869 -0.010043657927 -0.009967729589 -0.0097601011762 -0.009407734959 -0.0089020051902 
-0.0082399584989 -0.0074257452669 -0.0064723143725 -0.0054056454925 -0.0042844809398 -0.0031509717646 -0.0020593199433 -0.0010709661504 -0.00024965840415 
0.00034531238726 0.00066778105343 0.000694536271 0.00043480062248 -3.6953792583e-05 -0.00064060092554 -0.0012802315447 -0.0018627802778 -0.0023248482458 
-0.0026521090131 -0.0028556846635 -0.0029552593578 -0.0029716401231 -0.0029320606431 -0.0057138220978 -0.0057049882978 -0.005728730398 -0.0057861174492 
-0.0058731884502 -0.0059839395167 -0.006114240367 -0.0062618164331 -0.0064282395033 -0.0066140826468 -0.006824864511 -0.0070629857465 -0.0073280824104 
-0.0076196491269 -0.0079341652939 -0.0082655010289 -0.008604789835 -0.0089403557876 -0.0092577952162 -0.0095402590192 -0.0097689995028 -0.0099241673285 
-0.0099857786659 -0.0099347855319 -0.0097542001915 -0.009430224586 -0.0089533690174 -0.0083195375459 -0.0075310177804 -0.0065977302108 -0.0055823311749 
-0.0044977704555 -0.003395086742 -0.0023302308462 -0.001364384611 -0.00056027891992 2.4182373642e-05 0.0003444999445 0.00037965950469 0.00014236178664 
-0.00031367753698 -0.00086240814316 -0.0014456239818 -0.0019713648811 -0.0023789527256 -0.0026602936897 -0.0028319115481 -0.0029169396087 -0.0029347513124 
-0.0028941484172 -0.005695419553 -0.005682482738 -0.0057081744675 -0.0057691524557 -0.0058574960777 -0.0059641438849 -0.006086227922 -0.0062192027174 
-0.0063706342453 -0.0065435472338 -0.0067431025807 -0.0069731432166 -0.0072351291916 -0.00752864506 -0.0078507613204 -0.008195809688 -0.008555113272 
-0.0089167978918 -0.0092658336179 -0.0095844042167 -0.0098525832954 -0.010049257267 -0.010153207684 -0.010144249705 -0.010004374893 -0.0097188721473 
-0.0092773541884 -0.0086744629825 -0.007909338467 -0.0070299113636 -0.0060416255882 -0.0049792492264 -0.0038911005197 -0.0028327469191 -0.0018650456732 
-0.0010503546902 -0.00044644000103 -9.8156836576e-05 -2.7462500148e-05 -0.0002231314373 -0.00063301392188 -0.0011637746587 -0.0017074023345 -0.0022007442425 
-0.0025687447851 -0.0027987081223 -0.0029267012421 -0.0029811153776 -0.0029830100865 -0.0029330276652 -0.0056308403488 -0.0056231911156 -0.0056586673875 
-0.0057290265788 -0.0058219009053 -0.0059259743433 -0.0060395716881 -0.0061629803306 -0.0063050725991 -0.0064731766974 -0.0066740413907 -0.0069126425266 
-0.0071914666988 -0.0075104610348 -0.0078667685125 -0.0082543024701 -0.0086633777543 -0.0090806023237 -0.0094891159502 -0.0098691582455 -0.010198960462 
-0.010455828979 -0.010617290876 -0.010662262912 -0.010572213071 -0.010332273055 -0.0099322673535 -0.0093677968996 -0.0086457607277 -0.0078022965955 
-0.0068387343962 -0.0057927871697 -0.0047106674781 -0.0036462140926 -0.0026588385949 -0.0018098573751 -0.0011567848865 -0.00074551677812 -0.00060088793364 
-0.00071701640051 -0.0010503800564 -0.0015206477565 -0.0020252592008 -0.0024816491381 -0.0028304608264 -0.0030260173895 -0.0031159729782 -0.0031392157739 
-0.0031231262321 -0.0030714457325 -0.0055181995228 -0.0055261826104 -0.005578168959 -0.0056602990479 -0.0057583843981 -0.0058635913051 -0.005974989858 
-0.0060991842745 -0.0062468102067 -0.0064282437202 -0.0066520023347 -0.0069239929048 -0.007247120456 -0.007621071409 -0.008041955961 -0.0085018952265 
-0.0089888842231 -0.0094869615846 -0.0099767149781 -0.010436157219 -0.010841779621 -0.011169686024 -0.011396767892 -0.011501862287 -0.011466850489 
-0.011277653763 -0.010925081252 -0.010405323227 -0.0097392390541 -0.0089261066874 -0.0079873148519 -0.0069561484155 -0.0058753388841 -0.0047955782043 
-0.0037734857793 -0.0028682670653 -0.0021365977129 -0.0016255913218 -0.0013642442802 -0.0013546515174 -0.0015655823566 -0.0019323546732 -0.0023668324949 
-0.0027776204689 -0.0030847603936 -0.0032796510481 -0.0033512682605 -0.0033588182597 -0.0033351915163 -0.0032915525206 -0.0053597573502 -0.005391492341 
-0.0054621841082 -0.0055565638605 -0.0056644603579 -0.0057771923516 -0.0058994517664 -0.006041753252 -0.0062168670382 -0.0064367992279 -0.0067110027611 
-0.0070455898412 -0.0074429289607 -0.0079012722273 -0.0084144106178 -0.0089716210301 -0.0095578459416 -0.010154193003 -0.010738810262 -0.011287898808 
-0.011776824102 -0.012181275925 -0.012478385346 -0.012647777507 -0.012672530847 -0.012540073696 -0.012243041617 -0.011780207918 -0.011163862799 
-0.01038959187 -0.0094797166659 -0.0084646918902 -0.0073833286755 -0.006282084904 -0.0052135241712 -0.0042335948269 -0.0033973511914 -0.0027529548481 
-0.0023342363069 -0.0021528540704 -0.0021920604081 -0.0024049232987 -0.0027196259814 -0.0030524236092 -0.0033267228924 -0.0035019402114 -0.003586282427 
-0.0036043319394 -0.0035901179943 -0.0035626162221 -0.0051623727072 -0.0052225157364 -0.0053127025992 -0.0054224861495 -0.0055438372355 -0.0056763874981 
-0.0058279722963 -0.0060111764607 -0.0062398145576 -0.0065262738172 -0.006879813375 -0.0073056789214 -0.0078045067374 -0.0083719441485 -0.008998682476 
-0.0096707081858 -0.010369847322 -0.011074661736 -0.011761433774 -0.012405265986 -0.012981208204 -0.013465327484 -0.013835688786 -0.014073220266 
-0.014162528308 -0.014092678704 -0.013858055604 -0.013459464908 -0.012895729553 -0.012165951218 -0.011289883704 -0.010294347391 -0.0092134951998 
-0.0080885558617 -0.0069668907501 -0.0059000530741 -0.0049405169408 -0.0041368934907 -0.0035277825972 -0.0031349712884 -0.0029574032311 -0.0029679490585 
-0.0031150843417 -0.003331012257 -0.0035472754751 -0.0037175205549 -0.0038196674516 -0.0038571075273 -0.0038681201963 -0.0038621278371 -0.0049423063834 
-0.0050330407208 -0.0051408010128 -0.0052679690383 -0.005413802223 -0.0055827013086 -0.0057846428826 -0.0060328573193 -0.0063409450775 -0.0067204630686 
-0.0071793312516 -0.0077207228493 -0.0083424419373 -0.0090368974403 -0.0097913954617 -0.010588728658 -0.01140811445 -0.012226180049 -0.013018063618 
-0.013758521347 -0.014422966657 -0.014988386366 -0.015434114283 -0.015742549173 -0.015899800146 -0.015896378229 -0.015728011723 -0.015396621648 
-0.014889540557 -0.014209120676 -0.013372132463 -0.012401206117 -0.011325188709 -0.010179266323 -0.0090046105515 -0.0078472642793 -0.0067559674944 
-0.0057787080605 -0.0049580039408 -0.0043253141738 -0.0038954749716 -0.0036625195673 -0.0035984720877 -0.0036566271983 -0.0037803822835 -0.0039168718689 
-0.0040290651821 -0.004117649042 -0.0041656222488 -0.0041837577927 -0.0047256453623 -0.0048435679609 -0.0049697328033 -0.0051210668725 -0.0053041035851 
-0.0055263611116 -0.005798577155 -0.0061334519122 -0.006543232261 -0.0070376157905 -0.0076220152176 -0.0082964754301 -0.0090553786315 -0.0098876545307 
-0.010777334501 -0.011704520407 -0.012646381884 -0.013578271893 -0.014474841076 -0.015311074647 -0.016063172785 -0.016709271871 -0.017230090826 
-0.017609470179 -0.017834925534 -0.017898251165 -0.017796180467 -0.017531148285 -0.017082918615 -0.016455647639 -0.015663080977 -0.014723415177 
-0.013659822002 -0.012500891275 -0.011280814715 -0.010039075864 -0.0088193762256 -0.0076675674808 -0.0066284819086 -0.0057417775798 -0.0050372214437 
-0.0045301520538 -0.0042180873458 -0.004079561302 -0.0040763118182 -0.004160044742 -0.0042848919296 -0.0044096556553 -0.0044932976273 -0.0045358980005 
-0.0045463370554 -0.0046870486769 -0.0048347820491 -0.0050183250493 -0.0052504246678 -0.0055404630999 -0.0058989464319 -0.0063370875116 -0.0068649585061 
-0.0074893615205 -0.0082122331527 -0.0090299131029 -0.0099331177573 -0.010907328986 -0.01193372615 -0.012990169629 -0.014052331519 -0.015094838167 
-0.016092331348 -0.017020353061 -0.017856060149 -0.018578843957 -0.019170821558 -0.019617306078 -0.01990724864 -0.020033680867 -0.019994168848 
-0.019791308796 -0.01940155001 -0.018829671344 -0.018086457569 -0.017185700749 -0.01614482816 -0.014985586948 -0.013734665426 -0.012424081982 
-0.01109113851 -0.0097777236422 -0.0085287670002 -0.0073897269547 -0.006403129811 -0.0056043232599 -0.0050167180534 -0.0046469082049 -0.004480342058 
-0.0044791247076 -0.004585400578 -0.0047319280275 -0.0048637574963 -0.0049338515373 -0.0044435486832 -0.0046043052118 -0.0047755912342 -0.0049976911172 
-0.0052875559667 -0.0056553778309 -0.0061106364359 -0.0066624757061 -0.0073179539647 -0.0080801549534 -0.0089470085701 -0.0099109218606 -0.010958884155 
-0.012073253718 -0.013232673824 -0.014413183501 -0.015589393899 -0.016735586693 -0.017826644077 -0.018838787437 -0.019750226559 -0.02054166965 
-0.021196762574 -0.021702450229 -0.022049275755 -0.022231575231 -0.02224765947 -0.022100033201 -0.021765824168 -0.021249768428 -0.020559893805 
-0.019705855591 -0.018699586996 -0.017556095387 -0.01629435998 -0.014938269992 -0.013517480915 -0.012067996843 -0.010632238745 -0.0092583224622 
-0.0079982354595 -0.0069045482141 -0.0060252122193 -0.0053959831731 -0.0050303730004 -0.0049086236723 -0.0049716134698 -0.0051312459261 -0.0053022214176 
-0.0053988506858 -0.0044542220008 -0.0046310899931 -0.0048272100278 -0.0050915963258 -0.0054439524661 -0.0058945163786 -0.0064513367517 -0.0071208823172 
-0.007906552379 -0.0088072793204 -0.0098168273294 -0.010923567196 -0.012111013425 -0.013358612469 -0.014642770676 -0.015938043766 -0.017218273003 
-0.018457583025 -0.019631163371 -0.020715999606 -0.021691453226 -0.02253972665 -0.023246234541 -0.023799837604 -0.024192850755 -0.02442099821 
-0.024483320834 -0.024382109412 -0.02409838536 -0.023636709535 -0.023002680638 -0.022202321929 -0.021242623457 -0.020132294052 -0.018882782789 
-0.017509583763 -0.016033781226 -0.014483723659 -0.012896606599 -0.011319600618 -0.0098099749491 -0.0084334061162 -0.0072593360236 -0.0063520061295 
-0.0057560754445 -0.0054776797667 -0.0054675963026 -0.0056237071948 -0.0058235017559 -0.0059473021989 -0.0046054772804 -0.0047944263381 -0.0050151904338 
-0.0053227467187 -0.0057384005082 -0.0062720250036 -0.0069298334732 -0.007715138731 -0.0086273845502 -0.00966130356 -0.010806426273 -0.012047314765 
-0.013364184856 -0.014733781809 -0.016130549171 -0.017527781036 -0.018898695333 -0.020217265433 -0.021459069511 -0.022601969874 -0.023626663551 
-0.024517137865 -0.025260910263 -0.025848950558 -0.026275514423 -0.026537818351 -0.026635672042 -0.026571220651 -0.026331445104 -0.025920963685 
-0.025343395612 -0.024601800882 -0.023699016293 -0.022638261608 -0.021424102276 -0.02006387816 -0.018569675153 -0.016960826052 -0.015266797105 
-0.01353010858 -0.011808607172 -0.010175938592 -0.0087184732489 -0.007526381526 -0.0066765697319 -0.0062070145003 -0.0060882564858 -0.006211753544 
-0.0064214728617 -0.0065881853036 -0.0049129562789 -0.0051096031882 -0.0053532579971 -0.0057023301091 -0.0061788455723 -0.0067919221716 -0.007545539595 
-0.0084396865134 -0.0094699194108 -0.010626803436 -0.011895882553 -0.013258129385 -0.014690629941 -0.016167692058 -0.017661982684 -0.019145670881 
-0.020591307101 -0.02197280664 -0.02326624345 -0.024450537882 -0.025508044228 -0.026424861023 -0.027190771048 -0.02779903562 -0.028245951114 
-0.02853029775 -0.028652821354 -0.028615686367 -0.028412676675 -0.028048785428 -0.027526136131 -0.026845604438 -0.026006902246 -0.025008907281 
-0.023850399681 -0.022531382895 -0.021055162609 -0.019431328024 -0.017679638567 -0.015834553677 -0.013949709933 -0.012100988398 -0.010385926876 
-0.0089163022592 -0.0078002730903 -0.0071119119556 -0.006852226049 -0.0069220283935 -0.0071475049481 -0.0073449677153 -0.005379760974 -0.0055795100089 
-0.0058430796098 -0.0062301349921 -0.0067626258898 -0.0074484135729 -0.0082891021337 -0.009281497249 -0.010417414816 -0.011683548898 -0.013061770489 
-0.014529644582 -0.016061431203 -0.017629194186 -0.019203990824 -0.020756797864 -0.02225962087 -0.02368641609 -0.025013944282 -0.026222520681 
-0.027296458271 -0.028224098054 -0.028997635101 -0.029612666812 -0.030067552806 -0.030362751477 -0.030500055865 -0.030481918642 -0.030308656354 
-0.029985699926 -0.029514218632 -0.028893763743 -0.028122070397 -0.027195071478 -0.02610726475 -0.024852678643 -0.023426749633 -0.021829401978 
-0.020069525573 -0.018170790484 -0.016178212899 -0.014164058435 -0.012230505309 -0.010505125259 -0.0091242259401 -0.0081998426876 -0.0077717576237 
-0.0077626198396 -0.0079851811822 -0.0082173761108 -0.0059973529283 -0.0061957256071 -0.0064755347944 -0.0068958443143 -0.0074776304017 -0.0082271769408 
-0.0091438244064 -0.010221401197 -0.011448329593 -0.012807837721 -0.014278370954 -0.015834451684 -0.017447764575 -0.01908835863 -0.020725632659 
-0.022329536349 -0.023871636999 -0.025326146807 -0.026670857379 -0.027887767852 -0.028963262642 -0.029888024382 -0.030656666373 -0.031267063994 
-0.031719650276 -0.032016531903 -0.032160656631 -0.032154904994 -0.032005063007 -0.031716778987 -0.031290792271 -0.030726160606 -0.030019826171 
-0.029166269392 -0.028157428085 -0.026983159273 -0.025632614174 -0.02409700434 -0.022374202557 -0.020475375333 -0.018433317178 -0.01631120654 
-0.014209054004 -0.012263287944 -0.010633212651 -0.0094678414859 -0.0088510116126 -0.0087387831783 -0.0089418300601 -0.0092058060161 -0.00674771247 
-0.006940681828 -0.0072328210942 -0.0076808954022 -0.0083041627466 -0.0091072515544 -0.010087387624 -0.011235771922 -0.012537880556 -0.013973811878 
-0.015519000434 -0.017145274838 -0.018822045898 -0.02051737242 -0.022199200939 -0.023836598564 -0.025400939906 -0.026867045601 -0.028214032565 
-0.029425690836 -0.030490540546 -0.031401605863 -0.032155791439 -0.032753191465 -0.033196148404 -0.033488344008 -0.03363374578 -0.033635578882 
-0.03350386456 -0.033243846786 -0.032856331306 -0.032340621335 -0.031693891003 -0.030910561006 -0.029981780104 -0.028895271379 -0.027635998485 
-0.026188252054 -0.024539833603 -0.022688915534 -0.020653644056 -0.018483506716 -0.016269804061 -0.014150262045 -0.012300324172 -0.010902274997 
-0.010086154845 -0.0098510750709 -0.010018596037 -0.010306966336 -0.0076060655646 -0.0077902631747 -0.0080907822838 -0.0085607102216 -0.0092171586906 
-0.010063056738 -0.01109376439 -0.012298268056 -0.013659490734 -0.015154837479 -0.016757182191 -0.018436028716 -0.020158660204 -0.021891374011 
-0.023600884808 -0.025255651547 -0.026827224997 -0.02829134578 -0.029628570291 -0.030824521237 -0.03186986724 -0.032759818674 -0.033493486952 
-0.034072931847 -0.03450219166 -0.034786202725 -0.034929962776 -0.034935903028 -0.034818303199 -0.034580495338 -0.034223871605 -0.033748524582 
-0.033152649488 -0.032431741358 -0.031577719294 -0.030578199812 -0.029416339803 -0.028071921336 -0.026524626674 -0.024760468057 -0.022781963624 
-0.02062160621 -0.01835626353 -0.016117378263 -0.014088530505 -0.012479234525 -0.011464791815 -0.011094439197 -0.011214419199 -0.011525345334 
-0.0085436425809 -0.0087163243819 -0.0090212508596 -0.0095070267949 -0.010188329335 -0.011066413474 -0.012135053134 -0.013381386699 -0.014786200797 
-0.016324712702 -0.017967661055 -0.019682503851 -0.021434631769 -0.023188903571 -0.024911104721 -0.026569477156 -0.028136086093 -0.029587725932 
-0.03090641206 -0.03207963557 -0.033100065289 -0.033965005728 -0.034675507058 -0.035235307894 -0.035649660317 -0.035924377243 -0.036064977114 
-0.036074570969 -0.03596746915 -0.035746335921 -0.035413190116 -0.034969147139 -0.034413850057 -0.033744622279 -0.032955352249 -0.03203529378 
-0.030968096125 -0.029731762156 -0.028300596255 -0.026650527486 -0.024769040118 -0.022669958351 -0.020411303651 -0.01811124122 -0.015952973186 
-0.014165369256 -0.012964986246 -0.012454607556 -0.012516454552 -0.012840931035 -0.0095301123521 -0.0096889175822 -0.0099942634369 -0.010489979506 
-0.011188130552 -0.012088353129 -0.013183058121 -0.014457861972 -0.015891897025 -0.017458649586 -0.01912710063 -0.020862907251 -0.022629983307 
-0.024392090096 -0.026114491034 -0.027765595091 -0.02931814233 -0.030749977155 -0.032044639468 -0.033191355538 -0.034184696792 -0.035023840933 
-0.03571147916 -0.036252534217 -0.036653059786 -0.03691923977 -0.037056735579 -0.037070069397 -0.036970753881 -0.036761688765 -0.036445433409 
-0.03602413112 -0.035499038557 -0.034869654379 -0.034132550487 -0.033279849756 -0.03229762846 -0.031164768841 -0.029853358852 -0.028332332275 
-0.02657623392 -0.024580306012 -0.022380990679 -0.020077337634 -0.017843822041 -0.0159195746 -0.014555664255 -0.013908129452 -0.013904138615 
-0.014233869556 -0.010535562097 -0.010678170733 -0.010979882347 -0.011479846286 -0.012187425978 -0.013100620045 -0.014210607109 -0.015501844358 
-0.016952241781 -0.018533968181 -0.020214515044 -0.02195819658 -0.023727848203 -0.025486544259 -0.027199480499 -0.02883541949 -0.030367763526 
-0.031775503177 -0.033043574238 -0.034162841115 -0.035129613268 -0.035944643535 -0.036611792832 -0.037136785536 -0.037525977086 -0.037785528415 
-0.0379209624 -0.037937891775 -0.037844540527 -0.037643946025 -0.037339145978 -0.036933241957 -0.036428977726 -0.035828059326 -0.035129954161 
-0.034330315028 -0.033418994031 -0.032377992506 -0.031180331526 -0.029791597178 -0.028176693174 -0.026314074752 -0.024217763743 -0.021963486067 
-0.019709483492 -0.017695602306 -0.01619861966 -0.015424161847 -0.015350368792 -0.015677928053 -0.011532174667 -0.011655565156 -0.0119495107 
-0.012448422913 -0.01315879026 -0.014076824577 -0.015192609009 -0.016489750095 -0.017945313648 -0.019530441353 -0.021211571131 -0.022952140077 
-0.024714315445 -0.026461011564 -0.028157576259 -0.029773134809 -0.031281871727 -0.032663797279 -0.0339051566 -0.034998319331 -0.035941040716 
-0.036735211721 -0.037385528166 -0.037898027028 -0.03827901228 -0.038534363143 -0.038669025064 -0.038689264585 -0.038600552822 -0.038405766751 
-0.038108268859 -0.037711877132 -0.037220672332 -0.036638275796 -0.035966917394 -0.03520593032 -0.03434962537 -0.033384705023 -0.03228779166 
-0.031024801643 -0.029555032787 -0.027843386851 -0.025882536125 -0.023722638275 -0.021499654426 -0.019444955827 -0.017850988209 -0.016966432586 
-0.016823050563 -0.017142353094 -0.012496190398 -0.012593906917 -0.012876768281 -0.013370036303 -0.014077456843 -0.014993338758 -0.016106779109 
-0.017400792584 -0.018851880069 -0.020430522891 -0.022102620898 -0.023831153997 -0.025578187579 -0.027306758042 -0.02898242234 -0.030574807548 
-0.032058772699 -0.033415279524 -0.0346317617 -0.035701810272 -0.036624223071 -0.037401708582 -0.038039317411 -0.038543105663 -0.038919108438 
-0.039172597376 -0.039308163716 -0.039330257319 -0.039245680083 -0.039054869039 -0.038761546308 -0.038370233905 -0.037885967677 -0.037313992958 
-0.03665893993 -0.03592354904 -0.035106733838 -0.03420066887 -0.033187440259 -0.032036490676 -0.030705733934 -0.029150748009 -0.02734564089 
-0.025314852214 -0.023167937525 -0.021119694726 -0.019467827307 -0.018495335137 -0.018286830883 -0.018593515567 -0.013401679727 -0.013476199253 
-0.013738562514 -0.014222355596 -0.014922077133 -0.015829869346 -0.016934059886 -0.018217209331 -0.019655536141 -0.021219389778 -0.022874571269 
-0.02458416166 -0.026310502821 -0.028016871946 -0.029669186164 -0.03123751965 -0.032697371632 -0.034030545135 -0.035225383988 -0.036276338695 
-0.037182887679 -0.037948109988 -0.038577139595 -0.039075822679 -0.039449594 -0.039703154506 -0.039840289647 -0.03986447122 -0.039783104829 
-0.039594691151 -0.039303233431 -0.038913585518 -0.038431614747 -0.037863798742 -0.037216703745 -0.036496053851 -0.035704958196 -0.034841147171 
-0.033893122178 -0.032836181708 -0.031630712781 -0.03022767292 -0.028586712991 -0.026708364546 -0.024673807049 -0.022674847694 -0.021004490799 
-0.019969918579 -0.019704671042 -0.019996257169 -0.014225211006 -0.014287516923 -0.014523564981 -0.014986844774 -0.01567526229 -0.016569784687 