# vtk DataFile Version 4.1
vtk output
ASCII
DATASET STRUCTURED_GRID
DIMENSIONS 51 51 1
POINTS 2601 float
0 0 0 0.02 0 0 0.04 0 0 
0.06 0 0 0.08 0 0 0.1 0 0 
0.12 0 0 0.14 0 0 0.16 0 0 
0.18 0 0 0.2 0 0 0.22 0 0 
0.24 0 0 0.26 0 0 0.28 0 0 
0.3 0 0 0.32 0 0 0.34 0 0 
0.36 0 0 0.38 0 0 0.4 0 0 
0.42 0 0 0.44 0 0 0.46 0 0 
0.48 0 0 0.5 0 0 0.52 0 0 
0.54 0 0 0.56 0 0 0.58 0 0 
0.6 0 0 0.62 0 0 0.64 0 0 
0.66 0 0 0.68 0 0 0.7 0 0 
0.72 0 0 0.74 0 0 0.76 0 0 
0.78 0 0 0.8 0 0 0.82 0 0 
0.84 0 0 0.86 0 0 0.88 0 0 
0.9 0 0 0.92 0 0 0.94 0 0 
0.96 0 0 0.98 0 0 1 0 0 
0 0.02 0 0.02 0.02 0 0.04 0.02 0 
0.06 0.02 0 0.08 0.02 0 0.1 0.02 0 
0.12 0.02 0 0.14 0.02 0 0.16 0.02 0 
0.18 0.02 0 0.2 0.02 0 0.22 0.02 0 
0.24 0.02 0 0.26 0.02 0 0.28 0.02 0 
0.3 0.02 0 0.32 0.02 0 0.34 0.02 0 
0.36 0.02 0 0.38 0.02 0 0.4 0.02 0 
0.42 0.02 0 0.44 0.02 0 0.46 0.02 0 
0.48 0.02 0 0.5 0.02 0 0.52 0.02 0 
0.54 0.02 0 0.56 0.02 0 0.58 0.02 0 
0.6 0.02 0 0.62 0.02 0 0.64 0.02 0 
0.66 0.02 0 0.68 0.02 0 0.7 0.02 0 
0.72 0.02 0 0.74 0.02 0 0.76 0.02 0 
0.78 0.02 0 0.8 0.02 0 0.82 0.02 0 
0.84 0.02 0 0.86 0.02 0 0.88 0.02 0 
0.9 0.02 0 0.92 0.02 0 0.94 0.02 0 
0.96 0.02 0 0.98 0.02 0 1 0.02 0 
0 0.04 0 0.02 0.04 0 0.04 0.04 0 
0.06 0.04 0 0.08 0.04 0 0.1 0.04 0 
0.12 0.04 0 0.14 0.04 0 0.16 0.04 0 
0.18 0.04 0 0.2 0.04 0 0.22 0.04 0 
0.24 0.04 0 0.26 0.04 0 0.28 0.04 0 
0.3 0.04 0 0.32 0.04 0 0.34 0.04 0 
0.36 0.04 0 0.38 0.04 0 0.4 0.04 0 
0.42 0.04 0 0.44 0.04 0 0.46 0.04 0 
0.48 0.04 0 0.5 0.04 0 0.52 0.04 0 
0.54 0.04 0 0.56 0.04 0 0.58 0.04 0 
0.6 0.04 0 0.62 0.04 0 0.64 0.04 0 
0.66 0.04 0 0.68 0.04 0 0.7 0.04 0 
0.72 0.04 0 0.74 0.04 0 0.76 0.04 0 
0.78 0.04 0 0.8 0.04 0 0.82 0.04 0 
0.84 0.04 0 0.86 0.04 0 0.88 0.04 0 
0.9 0.04 0 0.92 0.04 0 0.94 0.04 0 
0.96 0.04 0 0.98 0.04 0 1 0.04 0 
0 0.06 0 0.02 0.06 0 0.04 0.06 0 
0.06 0.06 0 0.08 0.06 0 0.1 0.06 0 
0.12 0.06 0 0.14 0.06 0 0.16 0.06 0 
0.18 0.06 0 0.2 0.06 0 0.22 0.06 0 
0.24 0.06 0 0.26 0.06 0 0.28 0.06 0 
0.3 0.06 0 0.32 0.06 0 0.34 0.06 0 
0.36 0.06 0 0.38 0.06 0 0.4 0.06 0 
0.42 0.06 0 0.44 0.06 0 0.46 0.06 0 
0.48 0.06 0 0.5 0.06 0 0.52 0.06 0 
0.54 0.06 0 0.56 0.06 0 0.58 0.06 0 
0.6 0.06 0 0.62 0.06 0 0.64 0.06 0 
0.66 0.06 0 0.68 0.06 0 0.7 0.06 0 
0.72 0.06 0 0.74 0.06 0 0.76 0.06 0 
0.78 0.06 0 0.8 0.06 0 0.82 0.06 0 
0.84 0.06 0 0.86 0.06 0 0.88 0.06 0 
0.9 0.06 0 0.92 0.06 0 0.94 0.06 0 
0.96 0.06 0 0.98 0.06 0 1 0.06 0 
0 0.08 0 0.02 0.08 0 0.04 0.08 0 
0.06 0.08 0 0.08 0.08 0 0.1 0.08 0 
0.12 0.08 0 0.14 0.08 0 0.16 0.08 0 
0.18 0.08 0 0.2 0.08 0 0.22 0.08 0 
0.24 0.08 0 0.26 0.08 0 0.28 0.08 0 
0.3 0.08 0 0.32 0.08 0 0.34 0.08 0 
0.36 0.08 0 0.38 0.08 0 0.4 0.08 0 
0.42 0.08 0 0.44 0.08 0 0.46 0.08 0 
0.48 0.08 0 0.5 0.08 0 0.52 0.08 0 
0.54 0.08 0 0.56 0.08 0 0.58 0.08 0 
0.6 0.08 0 0.62 0.08 0 0.64 0.08 0 
0.66 0.08 0 0.68 0.08 0 0.7 0.08 0 
0.72 0.08 0 0.74 0.08 0 0.76 0.08 0 
0.78 0.08 0 0.8 0.08 0 0.82 0.08 0 
0.84 0.08 0 0.86 0.08 0 0.88 0.08 0 
0.9 0.08 0 0.92 0.08 0 0.94 0.08 0 
0.96 0.08 0 0.98 0.08 0 1 0.08 0 
0 0.1 0 0.02 0.1 0 0.04 0.1 0 
0.06 0.1 0 0.08 0.1 0 0.1 0.1 0 
0.12 0.1 0 0.14 0.1 0 0.16 0.1 0 
0.18 0.1 0 0.2 0.1 0 0.22 0.1 0 
0.24 0.1 0 0.26 0.1 0 0.28 0.1 0 
0.3 0.1 0 0.32 0.1 0 0.34 0.1 0 
0.36 0.1 0 0.38 0.1 0 0.4 0.1 0 
0.42 0.1 0 0.44 0.1 0 0.46 0.1 0 
0.48 0.1 0 0.5 0.1 0 0.52 0.1 0 
0.54 0.1 0 0.56 0.1 0 0.58 0.1 0 
0.6 0.1 0 0.62 0.1 0 0.64 0.1 0 
0.66 0.1 0 0.68 0.1 0 0.7 0.1 0 
0.72 0.1 0 0.74 0.1 0 0.76 0.1 0 
0.78 0.1 0 0.8 0.1 0 0.82 0.1 0 
0.84 0.1 0 0.86 0.1 0 0.88 0.1 0 
0.9 0.1 0 0.92 0.1 0 0.94 0.1 0 
0.96 0.1 0 0.98 0.1 0 1 0.1 0 
0 0.12 0 0.02 0.12 0 0.04 0.12 0 
0.06 0.12 0 0.08 0.12 0 0.1 0.12 0 
0.12 0.12 0 0.14 0.12 0 0.16 0.12 0 
0.18 0.12 0 0.2 0.12 0 0.22 0.12 0 
0.24 0.12 0 0.26 0.12 0 0.28 0.12 0 
0.3 0.12 0 0.32 0.12 0 0.34 0.12 0 
0.36 0.12 0 0.38 0.12 0 0.4 0.12 0 
0.42 0.12 0 0.44 0.12 0 0.46 0.12 0 
0.48 0.12 0 0.5 0.12 0 0.52 0.12 0 
0.54 0.12 0 0.56 0.12 0 0.58 0.12 0 
0.6 0.12 0 0.62 0.12 0 0.64 0.12 0 
0.66 0.12 0 0.68 0.12 0 0.7 0.12 0 
0.72 0.12 0 0.74 0.12 0 0.76 0.12 0 
0.78 0.12 0 0.8 0.12 0 0.82 0.12 0 
0.84 0.12 0 0.86 0.12 0 0.88 0.12 0 
0.9 0.12 0 0.92 0.12 0 0.94 0.12 0 
0.96 0.12 0 0.98 0.12 0 1 0.12 0 
0 0.14 0 0.02 0.14 0 0.04 0.14 0 
0.06 0.14 0 0.08 0.14 0 0.1 0.14 0 
0.12 0.14 0 0.14 0.14 0 0.16 0.14 0 
0.18 0.14 0 0.2 0.14 0 0.22 0.14 0 
0.24 0.14 0 0.26 0.14 0 0.28 0.14 0 
0.3 0.14 0 0.32 0.14 0 0.34 0.14 0 
0.36 0.14 0 0.38 0.14 0 0.4 0.14 0 
0.42 0.14 0 0.44 0.14 0 0.46 0.14 0 
0.48 0.14 0 0.5 0.14 0 0.52 0.14 0 
0.54 0.14 0 0.56 0.14 0 0.58 0.14 0 
0.6 0.14 0 0.62 0.14 0 0.64 0.14 0 
0.66 0.14 0 0.68 0.14 0 0.7 0.14 0 
0.72 0.14 0 0.74 0.14 0 0.76 0.14 0 
0.78 0.14 0 0.8 0.14 0 0.82 0.14 0 
0.84 0.14 0 0.86 0.14 0 0.88 0.14 0 
0.9 0.14 0 0.92 0.14 0 0.94 0.14 0 
0.96 0.14 0 0.98 0.14 0 1 0.14 0 
0 0.16 0 0.02 0.16 0 0.04 0.16 0 
0.06 0.16 0 0.08 0.16 0 0.1 0.16 0 
0.12 0.16 0 0.14 0.16 0 0.16 0.16 0 
0.18 0.16 0 0.2 0.16 0 0.22 0.16 0 
0.24 0.16 0 0.26 0.16 0 0.28 0.16 0 
0.3 0.16 0 0.32 0.16 0 0.34 0.16 0 
0.36 0.16 0 0.38 0.16 0 0.4 0.16 0 
0.42 0.16 0 0.44 0.16 0 0.46 0.16 0 
0.48 0.16 0 0.5 0.16 0 0.52 0.16 0 
0.54 0.16 0 0.56 0.16 0 0.58 0.16 0 
0.6 0.16 0 0.62 0.16 0 0.64 0.16 0 
0.66 0.16 0 0.68 0.16 0 0.7 0.16 0 
0.72 0.16 0 0.74 0.16 0 0.76 0.16 0 
0.78 0.16 0 0.8 0.16 0 0.82 0.16 0 
0.84 0.16 0 0.86 0.16 0 0.88 0.16 0 
0.9 0.16 0 0.92 0.16 0 0.94 0.16 0 
0.96 0.16 0 0.98 0.16 0 1 0.16 0 
0 0.18 0 0.02 0.18 0 0.04 0.18 0 
0.06 0.18 0 0.08 0.18 0 0.1 0.18 0 
0.12 0.18 0 0.14 0.18 0 0.16 0.18 0 
0.18 0.18 0 0.2 0.18 0 0.22 0.18 0 
0.24 0.18 0 0.26 0.18 0 0.28 0.18 0 
0.3 0.18 0 0.32 0.18 0 0.34 0.18 0 
0.36 0.18 0 0.38 0.18 0 0.4 0.18 0 
0.42 0.18 0 0.44 0.18 0 0.46 0.18 0 
0.48 0.18 0 0.5 0.18 0 0.52 0.18 0 
0.54 0.18 0 0.56 0.18 0 0.58 0.18 0 
0.6 0.18 0 0.62 0.18 0 0.64 0.18 0 
0.66 0.18 0 0.68 0.18 0 0.7 0.18 0 
0.72 0.18 0 0.74 0.18 0 0.76 0.18 0 
0.78 0.18 0 0.8 0.18 0 0.82 0.18 0 
0.84 0.18 0 0.86 0.18 0 0.88 0.18 0 
0.9 0.18 0 0.92 0.18 0 0.94 0.18 0 
0.96 0.18 0 0.98 0.18 0 1 0.18 0 
0 0.2 0 0.02 0.2 0 0.04 0.2 0 
0.06 0.2 0 0.08 0.2 0 0.1 0.2 0 
0.12 0.2 0 0.14 0.2 0 0.16 0.2 0 
0.18 0.2 0 0.2 0.2 0 0.22 0.2 0 
0.24 0.2 0 0.26 0.2 0 0.28 0.2 0 
0.3 0.2 0 0.32 0.2 0 0.34 0.2 0 
0.36 0.2 0 0.38 0.2 0 0.4 0.2 0 
0.42 0.2 0 0.44 0.2 0 0.46 0.2 0 
0.48 0.2 0 0.5 0.2 0 0.52 0.2 0 
0.54 0.2 0 0.56 0.2 0 0.58 0.2 0 
0.6 0.2 0 0.62 0.2 0 0.64 0.2 0 
0.66 0.2 0 0.68 0.2 0 0.7 0.2 0 
0.72 0.2 0 0.74 0.2 0 0.76 0.2 0 
0.78 0.2 0 0.8 0.2 0 0.82 0.2 0 
0.84 0.2 0 0.86 0.2 0 0.88 0.2 0 
0.9 0.2 0 0.92 0.2 0 0.94 0.2 0 
0.96 0.2 0 0.98 0.2 0 1 0.2 0 
0 0.22 0 0.02 0.22 0 0.04 0.22 0 
0.06 0.22 0 0.08 0.22 0 0.1 0.22 0 
0.12 0.22 0 0.14 0.22 0 0.16 0.22 0 
0.18 0.22 0 0.2 0.22 0 0.22 0.22 0 
0.24 0.22 0 0.26 0.22 0 0.28 0.22 0 
0.3 0.22 0 0.32 0.22 0 0.34 0.22 0 
0.36 0.22 0 0.38 0.22 0 0.4 0.22 0 
0.42 0.22 0 0.44 0.22 0 0.46 0.22 0 
0.48 0.22 0 0.5 0.22 0 0.52 0.22 0 
0.54 0.22 0 0.56 0.22 0 0.58 0.22 0 
0.6 0.22 0 0.62 0.22 0 0.64 0.22 0 
0.66 0.22 0 0.68 0.22 0 0.7 0.22 0 
0.72 0.22 0 0.74 0.22 0 0.76 0.22 0 
0.78 0.22 0 0.8 0.22 0 0.82 0.22 0 
0.84 0.22 0 0.86 0.22 0 0.88 0.22 0 
0.9 0.22 0 0.92 0.22 0 0.94 0.22 0 
0.96 0.22 0 0.98 0.22 0 1 0.22 0 
0 0.24 0 0.02 0.24 0 0.04 0.24 0 
0.06 0.24 0 0.08 0.24 0 0.1 0.24 0 
0.12 0.24 0 0.14 0.24 0 0.16 0.24 0 
0.18 0.24 0 0.2 0.24 0 0.22 0.24 0 
0.24 0.24 0 0.26 0.24 0 0.28 0.24 0 
0.3 0.24 0 0.32 0.24 0 0.34 0.24 0 
0.36 0.24 0 0.38 0.24 0 0.4 0.24 0 
0.42 0.24 0 0.44 0.24 0 0.46 0.24 0 
0.48 0.24 0 0.5 0.24 0 0.52 0.24 0 
0.54 0.24 0 0.56 0.24 0 0.58 0.24 0 
0.6 0.24 0 0.62 0.24 0 0.64 0.24 0 
0.66 0.24 0 0.68 0.24 0 0.7 0.24 0 
0.72 0.24 0 0.74 0.24 0 0.76 0.24 0 
0.78 0.24 0 0.8 0.24 0 0.82 0.24 0 
0.84 0.24 0 0.86 0.24 0 0.88 0.24 0 
0.9 0.24 0 0.92 0.24 0 0.94 0.24 0 
0.96 0.24 0 0.98 0.24 0 1 0.24 0 
0 0.26 0 0.02 0.26 0 0.04 0.26 0 
0.06 0.26 0 0.08 0.26 0 0.1 0.26 0 
0.12 0.26 0 0.14 0.26 0 0.16 0.26 0 
0.18 0.26 0 0.2 0.26 0 0.22 0.26 0 
0.24 0.26 0 0.26 0.26 0 0.28 0.26 0 
0.3 0.26 0 0.32 0.26 0 0.34 0.26 0 
0.36 0.26 0 0.38 0.26 0 0.4 0.26 0 
0.42 0.26 0 0.44 0.26 0 0.46 0.26 0 
0.48 0.26 0 0.5 0.26 0 0.52 0.26 0 
0.54 0.26 0 0.56 0.26 0 0.58 0.26 0 
0.6 0.26 0 0.62 0.26 0 0.64 0.26 0 
0.66 0.26 0 0.68 0.26 0 0.7 0.26 0 
0.72 0.26 0 0.74 0.26 0 0.76 0.26 0 
0.78 0.26 0 0.8 0.26 0 0.82 0.26 0 
0.84 0.26 0 0.86 0.26 0 0.88 0.26 0 
0.9 0.26 0 0.92 0.26 0 0.94 0.26 0 
0.96 0.26 0 0.98 0.26 0 1 0.26 0 
0 0.28 0 0.02 0.28 0 0.04 0.28 0 
0.06 0.28 0 0.08 0.28 0 0.1 0.28 0 
0.12 0.28 0 0.14 0.28 0 0.16 0.28 0 
0.18 0.28 0 0.2 0.28 0 0.22 0.28 0 
0.24 0.28 0 0.26 0.28 0 0.28 0.28 0 
0.3 0.28 0 0.32 0.28 0 0.34 0.28 0 
0.36 0.28 0 0.38 0.28 0 0.4 0.28 0 
0.42 0.28 0 0.44 0.28 0 0.46 0.28 0 
0.48 0.28 0 0.5 0.28 0 0.52 0.28 0 
0.54 0.28 0 0.56 0.28 0 0.58 0.28 0 
0.6 0.28 0 0.62 0.28 0 0.64 0.28 0 
0.66 0.28 0 0.68 0.28 0 0.7 0.28 0 
0.72 0.28 0 0.74 0.28 0 0.76 0.28 0 
0.78 0.28 0 0.8 0.28 0 0.82 0.28 0 
0.84 0.28 0 0.86 0.28 0 0.88 0.28 0 
0.9 0.28 0 0.92 0.28 0 0.94 0.28 0 
0.96 0.28 0 0.98 0.28 0 1 0.28 0 
0 0.3 0 0.02 0.3 0 0.04 0.3 0 
0.06 0.3 0 0.08 0.3 0 0.1 0.3 0 
0.12 0.3 0 0.14 0.3 0 0.16 0.3 0 
0.18 0.3 0 0.2 0.3 0 0.22 0.3 0 
0.24 0.3 0 0.26 0.3 0 0.28 0.3 0 
0.3 0.3 0 0.32 0.3 0 0.34 0.3 0 
0.36 0.3 0 0.38 0.3 0 0.4 0.3 0 
0.42 0.3 0 0.44 0.3 0 0.46 0.3 0 
0.48 0.3 0 0.5 0.3 0 0.52 0.3 0 
0.54 0.3 0 0.56 0.3 0 0.58 0.3 0 
0.6 0.3 0 0.62 0.3 0 0.64 0.3 0 
0.66 0.3 0 0.68 0.3 0 0.7 0.3 0 
0.72 0.3 0 0.74 0.3 0 0.76 0.3 0 
0.78 0.3 0 0.8 0.3 0 0.82 0.3 0 
0.84 0.3 0 0.86 0.3 0 0.88 0.3 0 
0.9 0.3 0 0.92 0.3 0 0.94 0.3 0 
0.96 0.3 0 0.98 0.3 0 1 0.3 0 
0 0.32 0 0.02 0.32 0 0.04 0.32 0 
0.06 0.32 0 0.08 0.32 0 0.1 0.32 0 
0.12 0.32 0 0.14 0.32 0 0.16 0.32 0 
0.18 0.32 0 0.2 0.32 0 0.22 0.32 0 
0.24 0.32 0 0.26 0.32 0 0.28 0.32 0 
0.3 0.32 0 0.32 0.32 0 0.34 0.32 0 
0.36 0.32 0 0.38 0.32 0 0.4 0.32 0 
0.42 0.32 0 0.44 0.32 0 0.46 0.32 0 
0.48 0.32 0 0.5 0.32 0 0.52 0.32 0 
0.54 0.32 0 0.56 0.32 0 0.58 0.32 0 
[...]
CELL_DATA 2500
FIELD FieldData 2
pressure 1 2500 double
-0.0056387484093 -0.0056292360105 -0.0056560632111 -0.0057232980835 -0.0058238057875 -0.0059489672947 -0.0060936763446 -0.0062565915592 -0.0064395270253 
-0.0066454376493 -0.0068782336983 -0.0071401550552 -0.007429941837 -0.0077465867613 -0.008084689863 -0.0084368834541 -0.0087934121484 -0.0091419344818 
-0.0094675381373 -0.0097528952002 -0.009978716874 -0.010124567522 -0.010169976455 -0.010095704546 -0.0098850027681 -0.0095247725997 -0.0090066394893 
-0.0083280641559 -0.0074936344861 -0.0065166858711 -0.0054247741474 -0.0042774695253 -0.0031179733463 -0.0020018674581 -0.00099223263041 -0.00015459229476 
0.00045005933125 0.00077419045827 0.00079387210064 0.00051861107117 2.6985546702e-05 -0.00059918626261 -0.0012604409153 -0.0018607203664 -0.0023349483861 
-0.0026693620887 -0.0028762546863 -0.0029765875047 -0.0029921743323 -0.0029510713021 -0.0056535271054 -0.0056443463174 -0.0056717732591 -0.0057350508114 
-0.0058281124985 -0.0059436230447 -0.0060772893107 -0.0062278158377 -0.0063978870617 -0.0065894913661 -0.0068078772141 -0.007056056503 -0.0073325016973 
-0.0076361373812 -0.0079632344382 -0.0083077164279 -0.0086608722539 -0.009010983975 -0.009343193602 -0.0096397737688 -0.0098808480843 -0.010045447648 
-0.010112733167 -0.010063185735 -0.0098796953419 -0.0095485540694 -0.0090604340511 -0.008411385385 -0.0076038466235 -0.0066480209489 -0.0056088252251 
-0.0044987119384 -0.0033703044326 -0.0022811845033 -0.0012942949074 -0.00047415564118 0.00011969033034 0.00044149773823 0.00046972149407 0.00021765822961 
-0.00025883173672 -0.00082746978695 -0.0014309174516 -0.0019726156203 -0.0023907024242 -0.0026776636351 -0.0028515109823 -0.0029368039384 -0.002953861419 
-0.0029117086218 -0.005635444728 -0.0056248330089 -0.0056548074187 -0.0057203752476 -0.0058124369118 -0.0059216800658 -0.0060457674111 -0.0061817795324 
-0.0063372685851 -0.0065168669852 -0.0067247121477 -0.0069644007691 -0.0072369777052 -0.0075420327542 -0.007876982114 -0.0082364622555 -0.0086117365832 
-0.0089903432038 -0.0093562006005 -0.0096902315494 -0.0099713545006 -0.010177652189 -0.010287499165 -0.010280590612 -0.010138905571 -0.0098476713152 
-0.0093963388115 -0.0087793483257 -0.0079958235416 -0.0070964630459 -0.0060840556933 -0.0049961014654 -0.0038822676478 -0.0027997423801 -0.0018110981505 
-0.00098038120742 -0.00036687318788 -1.6559213433e-05 4.8162347048e-05 -0.00016084587794 -0.00058933208182 -0.0011402695741 -0.0017020218788 -0.0022106260136 
-0.0025875396204 -0.0028208873628 -0.002949183034 -0.0030025080392 -0.0030029488759 -0.0029511271661 -0.0055720704631 -0.0055671659983 -0.0056060070377 
-0.0056794364259 -0.0057744830391 -0.0058806618626 -0.0059961778515 -0.0061231856712 -0.0062705865283 -0.0064457788685 -0.0066549907432 -0.0069030448322 
-0.0071926797594 -0.0075244063821 -0.0078958304253 -0.008300834314 -0.0087290480909 -0.0091658573645 -0.0095929864084 -0.0099894637298 -0.010332754971 
-0.01059983188 -0.0107681431 -0.010816547856 -0.010726304555 -0.010482159225 -0.010073484263 -0.0094954562642 -0.0087572995721 -0.0078928779914 
-0.006905470238 -0.0058341642615 -0.0047266131628 -0.0036381744689 -0.0026298095241 -0.0017643559513 -0.0011007112534 -0.00068582683761 -0.00054498445763 
-0.0006717969478 -0.0010210086693 -0.0015093566281 -0.0020307728948 -0.0025006482554 -0.0028585037086 -0.0030556485702 -0.0031441274038 -0.0031648493505 
-0.0031464659884 -0.0030928743537 -0.0054586425732 -0.0054683698526 -0.0055225651367 -0.005607093002 -0.0057072345273 -0.0058149611647 -0.00592974076 
-0.006058826255 -0.0062127573611 -0.0064017515746 -0.0066343098594 -0.0069167725555 -0.0072528085194 -0.0076427047384 -0.008082579952 -0.0085638196458 
-0.009073064559 -0.0095928104023 -0.010102378605 -0.010579032569 -0.010998984833 -0.011338305161 -0.011573801357 -0.011683997734 -0.011650243533 
-0.011457887131 -0.011097357947 -0.01056489419 -0.0098822105991 -0.0090485025944 -0.0080863871577 -0.0070304264317 -0.0059246321192 -0.0048210031617 
-0.003777508276 -0.0028547234404 -0.0021106173428 -0.0015933326354 -0.0013323707721 -0.0013295222698 -0.0015522472984 -0.0019336019839 -0.0023826599853 
-0.0028053883153 -0.0031194883487 -0.0033160613489 -0.0033854591095 -0.0033898079341 -0.0033635042745 -0.0033181875181 -0.0052949808601 -0.0053272895075 
-0.0053999757378 -0.0054967225872 -0.0056082572075 -0.0057254339605 -0.0058531533221 -0.0060019834911 -0.0061846462395 -0.006413361903 -0.006698207627 
-0.0070462277742 -0.0074605179314 -0.0079393927423 -0.0084758948253 -0.0090578678632 -0.0096686389192 -0.010288019585 -0.010893418404 -0.01146079275 
-0.01196549182 -0.012383080588 -0.012690286852 -0.012866088328 -0.012892882559 -0.012757633125 -0.012452908093 -0.011977846502 -0.01134513318 
-0.010550919146 -0.0096185415799 -0.0085794578524 -0.0074734991656 -0.006348218058 -0.0052573794159 -0.0042582010408 -0.0034069617628 -0.0027528210568 
-0.0023301626577 -0.0021505361559 -0.0021962826032 -0.0024187852224 -0.0027440109644 -0.0030858453676 -0.003365618356 -0.00354183689 -0.0036247815678 
-0.0036401598213 -0.0036236198398 -0.0035949340386 -0.0050866572048 -0.0051470037184 -0.0052393465647 -0.005353917366 -0.0054814883617 -0.0056212412158 
-0.0057807805474 -0.0059726362982 -0.0062109622915 -0.0065089401578 -0.0068769446069 -0.0073210763386 -0.0078421058327 -0.0084349522866 -0.009088846327 
-0.0097881429573 -0.01051338061 -0.011242409427 -0.011951297081 -0.012615114194 -0.013208718108 -0.013707674738 -0.014089301786 -0.014333778378 
-0.014425210299 -0.014352573246 -0.014110595051 -0.01370078044 -0.013121126359 -0.01237227611 -0.011474604866 -0.010455632916 -0.0093503277646 
-0.0082008856794 -0.0070557729136 -0.0059677107613 -0.0049902891947 -0.0041730361144 -0.0035551104062 -0.0031583533772 -0.0029811635394 -0.0029952769711 
-0.0031475895284 -0.0033685582675 -0.0035882726571 -0.0037599525657 -0.0038609518192 -0.0038966035323 -0.0039062306743 -0.0038996799641 -0.0048508405735 
-0.0049427045358 -0.0050550724964 -0.0051895070969 -0.0053445756934 -0.0055237375658 -0.0057365131508 -0.0059963670009 -0.0063177406081 -0.0067134444302 
-0.007192384212 -0.0077579576513 -0.0084072829701 -0.0091313193982 -0.0099157654216 -0.010742171593 -0.011589104414 -0.012433013381 -0.013248975331 
-0.01401146673 -0.01469528533 -0.015276571513 -0.015733867852 -0.016049072416 -0.016208209574 -0.01620208835 -0.016026969735 -0.015685403568 
-0.015163341087 -0.014464775608 -0.013606910424 -0.012612933206 -0.011512422684 -0.010341455351 -0.0091421935406 -0.00796169066 -0.0068496293916 
-0.0058547799093 -0.0050201909245 -0.0043775161052 -0.0039413924 -0.0037052591935 -0.0036402378178 -0.003698592695 -0.0038228332199 -0.0039596107029 
-0.0040718622839 -0.0041599604892 -0.0042077103204 -0.0042259075664 -0.004615990007 -0.004737761152 -0.0048706702819 -0.0050323290602 -0.0052278111305 
-0.0054635457699 -0.0057500922517 -0.0061008125656 -0.0065292145681 -0.0070460601348 -0.0076570700119 -0.008361651339 -0.0091527639698 -0.010017764962 
-0.010939511223 -0.011897540655 -0.012868899211 -0.013828859367 -0.014751703508 -0.015611676004 -0.016384029363 -0.017046077546 -0.017578061821 
-0.017963775212 -0.018191028484 -0.018252067042 -0.018144089096 -0.017869941911 -0.017407527552 -0.016762789529 -0.015949833249 -0.014987387529 
-0.013899309017 -0.012714970334 -0.011469378633 -0.010202810066 -0.0089596960663 -0.0077865219189 -0.0067286179893 -0.0058259604663 -0.0051084230161 
-0.0045912400094 -0.0042716685093 -0.0041279189952 -0.0041214315596 -0.0042036321437 -0.0043283022361 -0.0044544368566 -0.0045391875534 -0.0045823953094 
-0.0044192769129 -0.0045660533277 -0.0047235273163 -0.0049203615188 -0.0051679469647 -0.0054749313406 -0.0058520797947 -0.0063116790313 -0.0068648345012 
-0.0075186853523 -0.0082745537033 -0.0091273719159 -0.010066299271 -0.01107570138 -0.012136284075 -0.013225851415 -0.014319998408 -0.015392907465 
-0.016418359902 -0.01737085238 -0.018226688984 -0.018964814678 -0.019567351599 -0.020019927935 -0.020311904142 -0.020436658837 -0.020391992785 
-0.020180696679 -0.01977724238 -0.019188342936 -0.018425160806 -0.017502001975 -0.016436886298 -0.0152521722 -0.013975140619 -0.012638374749 
-0.011279717873 -0.0099415716407 -0.0086693310703 -0.0075088533549 -0.0065029951105 -0.0056873914749 -0.0050857488419 -0.0047050062621 -0.0045309728611 
-0.0045259359791 -0.0046317493133 -0.0047803594921 -0.0049140674838 -0.0049851903691 -0.0043027608878 -0.0044720829653 -0.0046554063885 -0.0048931479628 
-0.005201350166 -0.0055899853041 -0.006069241077 -0.0066491276302 -0.0073369781797 -0.0081352297737 -0.0090403755902 -0.010043234181 -0.011129689883 
-0.012281691588 -0.013477885339 -0.014694254679 -0.015904907565 -0.017083163987 -0.018202770938 -0.019239065661 -0.020169844428 -0.020975870925 
-0.021641138566 -0.022152984729 -0.022502217378 -0.022683286921 -0.022694564133 -0.022538689081 -0.022191091104 -0.021658452044 -0.020949175165 
-0.020073345553 -0.019043326259 -0.017874531187 -0.016586334857 -0.015203029397 -0.013754684451 -0.012277719752 -0.010814963653 -0.0094149401013 
-0.0081300847062 -0.0070135218955 -0.0061139343795 -0.0054680065437 -0.005090251375 -0.0049616015091 -0.0050226708303 -0.0051837103173 -0.0053580479448 
-0.0054562478532 -0.0043065449142 -0.0044934535284 -0.0047029240651 -0.0049847068004 -0.0053582419152 -0.0058340771414 -0.0064208589398 -0.0071251736597 
-0.0079496749098 -0.008891766049 -0.0099435238093 -0.011092148292 -0.012320750628 -0.013608803792 -0.014932677701 -0.016266374865 -0.017582691945 
-0.018854532157 -0.020056170143 -0.021164207351 -0.022158101491 -0.023020439073 -0.023737021222 -0.024296918359 -0.024692494839 -0.024919462665 
-0.024976914942 -0.024867367371 -0.024570646351 -0.024093024245 -0.023440386328 -0.022619023636 -0.021636175523 -0.020500810215 -0.019224667105 
-0.017823558816 -0.016318898489 -0.014739354736 -0.013122435311 -0.011515656396 -0.0099767496435 -0.0085720823923 -0.0073721219499 -0.0064424969162 
-0.0058294548235 -0.0055404387597 -0.0055264292367 -0.0056837615538 -0.0058873176448 -0.0060127603948 -0.0044587880282 -0.0046580781935 -0.0048926906372 
-0.0052191323577 -0.0056590962266 -0.0062228298274 -0.006916471068 -0.0077424417603 -0.0086985101628 -0.0097775521908 -0.010967771166 -0.012253249397 
-0.013614195019 -0.015027308969 -0.016466424689 -0.017903713806 -0.019311078097 -0.020661541597 -0.02193031548 -0.023095388585 -0.024137876705 
-0.025042146815 -0.025795892535 -0.026390110833 -0.026819024807 -0.027079882815 -0.027172676598 -0.027099845706 -0.026847742844 -0.026422197135 
-0.025826943122 -0.025065147968 -0.024139794712 -0.023054308716 -0.021813514636 -0.020425033852 -0.018901214265 -0.017261608877 -0.015535881635 
-0.013766794036 -0.012012591028 -0.010347623348 -0.0088594220058 -0.0076398451743 -0.0067678727438 -0.0062834195555 -0.0061578369359 -0.0062811475974 
-0.0064938596902 -0.0066634633005 -0.0047750413861 -0.0049814130561 -0.0052390661958 -0.0056086794027 -0.0061129223351 -0.0067607678023 -0.0075551833626 
-0.0084943279605 -0.0095716846621 -0.010776258194 -0.012092944459 -0.013502607434 -0.014982234387 -0.016505446862 -0.018043694075 -0.019567711727 
-0.021049045399 -0.022461234673 -0.023780499122 -0.024986202923 -0.026061067405 -0.026991349468 -0.027766856795 -0.028380841077 -0.028829671973 
-0.029112332439 -0.029229796172 -0.029184452039 -0.028970054741 -0.028592103758 -0.028052681409 -0.027352691537 -0.02649196771 -0.025469598186 
-0.024284622264 -0.022937295936 -0.021431132507 -0.019775868683 -0.017991369159 -0.016112222708 -0.01419234395 -0.012308219629 -0.010558525255 
-0.009056851134 -0.0079137755556 -0.007205910427 -0.0069358559702 -0.0070036547371 -0.00723213455 -0.0074328664176 -0.0052576144683 -0.0054660960587 
-0.0057439960328 -0.0061535925563 -0.0067171340218 -0.007441514102 -0.0083264332811 -0.0093664176867 -0.010551456154 -0.011867346223 -0.013295693833 
-0.014813856253 -0.016395310872 -0.018010773008 -0.01962971589 -0.021222006678 -0.022759227081 -0.024215474517 -0.025567960413 -0.026797347789 
-0.027888093126 -0.0288285648 -0.029610994832 -0.030231132303 -0.03068762292 -0.030981206893 -0.031113852016 -0.031087698402 -0.030904136247 
-0.030568155165 -0.030080783397 -0.029441596548 -0.028648470324 -0.027697548823 -0.026583570034 -0.025300798273 -0.023844865238 -0.022215822465 
-0.020422620004 -0.018488964352 -0.01645999907 -0.014408410326 -0.012437354349 -0.010676175862 -0.0092637948704 -0.008315305277 -0.0078729338974 
-0.0078594626453 -0.00808442056 -0.0083205521867 -0.005896916111 -0.0061032434098 -0.0063981851365 -0.0068431488281 -0.0074586772747 -0.0082492770672 
-0.0092119066901 -0.010338332537 -0.011615796778 -0.013027074406 -0.014550254341 -0.01615896992 -0.017823389501 -0.019511791077 -0.021192284862 
-0.022834293027 -0.024409476126 -0.025892474216 -0.027261396093 -0.028498361534 -0.029589774259 -0.030526407165 -0.031303106138 -0.031918133162 
-0.032372296619 -0.032668042182 -0.032808543952 -0.032794093018 -0.032635488906 -0.032335288628 -0.031894344057 -0.031311806873 -0.030584747727 
-0.029707822638 -0.028673187926 -0.027470937838 -0.026090448311 -0.024523100615 -0.022766840257 -0.020832814662 -0.018753803919 -0.016593186624 
-0.014451699697 -0.01246735695 -0.010802089885 -0.0096083425848 -0.0089732009464 -0.0088539008266 -0.0090583714656 -0.0093268767641 -0.0066739101597 
-0.0068746177071 -0.0071830394246 -0.0076575294235 -0.0083161403176 -0.0091612264155 -0.010187823105 -0.011385708927 -0.012739717638 -0.014229444326 
-0.015829334349 -0.017509519547 -0.019237423184 -0.020979553869 -0.022703156224 -0.024377279023 -0.025973658824 -0.027467381883 -0.028837642818 
-0.030068223172 -0.031147773254 -0.032069626192 -0.032831169313 -0.033432943811 -0.033877654468 -0.034169144125 -0.034311528588 -0.034305550603 
-0.03416611382 -0.033895217464 -0.033493778167 -0.032961147018 -0.032294558457 -0.031488543437 -0.03053442988 -0.029420191538 -0.028131078411 
-0.026651630972 -0.024969792827 -0.023083735162 -0.021011510304 -0.018802604895 -0.016548742245 -0.014388912844 -0.012501012399 -0.011070929968 
-0.01023263203 -0.0099874944907 -0.010155104663 -0.010448114204 -0.0075628801819 -0.0077551132037 -0.0080729859068 -0.0085703024832 -0.00926241326 
-0.010150099281 -0.011227170334 -0.012481826939 -0.013896396074 -0.015447225376 -0.017105345944 -0.01883804423 -0.020610728882 -0.022388739734 
-0.024138587356 -0.025828968946 -0.027431616539 -0.028922273073 -0.030281425417 -0.031494838562 -0.032553550235 -0.033453349503 -0.034193887256 
-0.034777642759 -0.035208821606 -0.035492411702 -0.035633315974 -0.035633652387 -0.035508933745 -0.035261256481 -0.034891879317 -0.034400793308 
-0.033786129211 -0.033043397738 -0.032164645841 -0.031137738641 -0.029946168223 -0.028570073714 -0.026989417975 -0.025190326947 -0.023175243233 
-0.02097651111 -0.018671093104 -0.016391268562 -0.014322717779 -0.012678528828 -0.011638439579 -0.011255026695 -0.011373631003 -0.011689370391 
-0.0085340518143 -0.0087151959387 -0.0090380207037 -0.0095511254667 -0.010267395531 -0.011186547241 -0.012301518653 -0.013598854511 -0.015058291383 
-0.016653142191 -0.01835172106 -0.020119267113 -0.021919879518 -0.023717956262 -0.025479327969 -0.027172294138 -0.028768800192 -0.030245465214 
-0.031584409749 -0.032773518182 -0.033806114102 -0.034680146254 -0.035397169902 -0.035961170464 -0.036377526113 -0.036652054706 -0.036790220086 
-0.036795708363 -0.036682368925 -0.03645255831 -0.036108023395 -0.035649641342 -0.035076868372 -0.0343869265 -0.033573747442 -0.032626790994 
-0.031530076953 -0.030262088226 -0.028797606488 -0.027112878895 -0.025195419289 -0.023058818724 -0.02076088619 -0.018420147378 -0.016221424883 
-0.014396939884 -0.013167998895 -0.012641698457 -0.012700559734 -0.013029677924 -0.0095558684742 -0.0097232352626 -0.010046202928 -0.010568297275 
-0.011300271385 -0.012240961169 -0.013382291233 -0.014708960434 -0.016198261388 -0.017821128505 -0.019544012627 -0.021330891657 -0.023144906396 
-0.024949602674 -0.026710137524 -0.028394623228 -0.029975466456 -0.031430509175 -0.03274364911 -0.033904804288 -0.034909277316 -0.035756840911 
-0.036450526246 -0.036995491509 -0.037397922453 -0.03766410031 -0.037799717595 -0.037809857744 -0.037705422617 -0.037489027069 -0.037162922213 
-0.036728908403 -0.036187907333 -0.035539192809 -0.034779258711 -0.033900373774 -0.032889006392 -0.031724635377 -0.030380025298 -0.02882465561 
-0.027033273867 -0.025000901166 -0.022763540058 -0.020420146667 -0.018146267729 -0.016184000423 -0.014789256658 -0.014123178035 -0.014114467621 
-0.014448385365 -0.010596965576 -0.010747572032 -0.011065815921 -0.011590780181 -0.012331178811 -0.013284667043 -0.014441769111 -0.01578532384 
-0.017290707508 -0.01892733716 -0.020660633264 -0.022453791584 -0.024269127258 -0.026069401602 -0.027819293388 -0.029487017864 -0.031045783098 
-0.032474824069 -0.033759743008 -0.034892180002 -0.035869114726 -0.036691726524 -0.037364228806 -0.037892599341 -0.038283439 -0.038543091081 
-0.03867710872 -0.038691677369 -0.038594311797 -0.038387812418 -0.038074835299 -0.037658002682 -0.037139612706 -0.036520985041 -0.035801410894 
-0.034976629942 -0.034036868244 -0.032964775571 -0.03173418015 -0.030311428104 -0.028661856985 -0.026763833165 -0.024630850784 -0.022338178592 
-0.020044567165 -0.017992305177 -0.016462874841 -0.015667566167 -0.015587245997 -0.015918310198 -0.011628002968 -0.011757995266 -0.01206691866 
-0.01258956578 -0.013332232808 -0.014290752387 -0.015453953847 -0.016803122493 -0.01831249847 -0.019950824018 -0.021683068927 -0.023471838764 
-0.025278741917 -0.027065942106 -0.028797973758 -0.030443494385 -0.031976727741 -0.033378241894 -0.034635040377 -0.035740198901 -0.036691968661 
-0.037492686012 -0.038147415915 -0.038662596178 -0.039044859124 -0.039300227786 -0.039433807054 -0.039452546056 -0.03936085248 -0.039161556222 
-0.038857556479 -0.038452109002 -0.037948668547 -0.037350399482 -0.036659264514 -0.035874583544 -0.034990970535 -0.033995723384 -0.032866314469 
-0.031569596066 -0.03006558566 -0.02831936324 -0.026323148038 -0.024126399443 -0.021865047509 -0.019772277048 -0.018144886291 -0.017237533999 
-0.017085802038 -0.017407748434 -0.012623888134 -0.012725817686 -0.013022222687 -0.013538466599 -0.014278172179 -0.015234757017 -0.016395381169 
-0.017740355581 -0.01924358646 -0.020873778172 -0.0225957155 -0.024371562145 -0.026162414388 -0.027930200834 -0.029639670826 -0.031260193053 
-0.032766977762 -0.034141649433 -0.035372318785 -0.036453111843 -0.037383313268 -0.038166104071 -0.038807077751 -0.039312772648 -0.039689523698 
-0.039942832346 -0.04007710302 -0.040099317322 -0.040012241018 -0.039818135621 -0.039519949514 -0.039121402762 -0.038626890865 -0.038041098057 
-0.0373682723 -0.036611023737 -0.035768396017 -0.034833046651 -0.033787890222 -0.032603446545 -0.031238663246 -0.029649668429 -0.027810331865 
-0.025744276768 -0.023560543052 -0.021475057592 -0.019789351352 -0.0187924845 -0.018573838186 -0.018882166642 -0.013556626517 -0.013634111455 
-0.013908096277 -0.014414711261 -0.015146934429 -0.01609532755 -0.017245827157 -0.018578386198 -0.020067233609 -0.021681378298 -0.023385583251 
-0.025141777718 -0.026910916897 -0.028655094125 -0.030339595036 -0.031934540385 -0.033415900536 -0.034766051549 -0.035973855916 -0.037034225815 
-0.037947186022 -0.038716444012 -0.039347761228 -0.039847465389 -0.040221446807 -0.040474633521 -0.040611040061 -0.04063440859 -0.040551764589 
-0.04036137914 -0.040066567442 -0.039671516896 -0.039181359038 -0.038601926645 -0.037939274753 -0.037198785579 -0.036383553334 -0.03549164576 
-0.034512343138 -0.033422135674 -0.032182736598 -0.030746046795 -0.029071782787 -0.027159664499 -0.025089961762 -0.023054928308 -0.021350757677 
-0.020290572161 -0.020013459298 -0.020305590805 -0.014402338549 -0.014466648066 -0.014713797794 -0.015199226928 -0.015920274259 -0.016854774744 