# vtk DataFile Version 4.1
vtk output
ASCII
DATASET STRUCTURED_GRID
DIMENSIONS 51 51 1
POINTS 2601 float
0 0 0 0.02 0 0 0.04 0 0 
0.06 0 0 0.08 0 0 0.1 0 0 
0.12 0 0 0.14 0 0 0.16 0 0 
0.18 0 0 0.2 0 0 0.22 0 0 
0.24 0 0 0.26 0 0 0.28 0 0 
0.3 0 0 0.32 0 0 0.34 0 0 
0.36 0 0 0.38 0 0 0.4 0 0 
0.42 0 0 0.44 0 0 0.46 0 0 
0.48 0 0 0.5 0 0 0.52 0 0 
0.54 0 0 0.56 0 0 0.58 0 0 
0.6 0 0 0.62 0 0 0.64 0 0 
0.66 0 0 0.68 0 0 0.7 0 0 
0.72 0 0 0.74 0 0 0.76 0 0 
0.78 0 0 0.8 0 0 0.82 0 0 
0.84 0 0 0.86 0 0 0.88 0 0 
0.9 0 0 0.92 0 0 0.94 0 0 
0.96 0 0 0.98 0 0 1 0 0 
0 0.02 0 0.02 0.02 0 0.04 0.02 0 
0.06 0.02 0 0.08 0.02 0 0.1 0.02 0 
0.12 0.02 0 0.14 0.02 0 0.16 0.02 0 
0.18 0.02 0 0.2 0.02 0 0.22 0.02 0 
0.24 0.02 0 0.26 0.02 0 0.28 0.02 0 
0.3 0.02 0 0.32 0.02 0 0.34 0.02 0 
0.36 0.02 0 0.38 0.02 0 0.4 0.02 0 
0.42 0.02 0 0.44 0.02 0 0.46 0.02 0 
0.48 0.02 0 0.5 0.02 0 0.52 0.02 0 
0.54 0.02 0 0.56 0.02 0 0.58 0.02 0 
0.6 0.02 0 0.62 0.02 0 0.64 0.02 0 
0.66 0.02 0 0.68 0.02 0 0.7 0.02 0 
0.72 0.02 0 0.74 0.02 0 0.76 0.02 0 
0.78 0.02 0 0.8 0.02 0 0.82 0.02 0 
0.84 0.02 0 0.86 0.02 0 0.88 0.02 0 
0.9 0.02 0 0.92 0.02 0 0.94 0.02 0 
0.96 0.02 0 0.98 0.02 0 1 0.02 0 
0 0.04 0 0.02 0.04 0 0.04 0.04 0 
0.06 0.04 0 0.08 0.04 0 0.1 0.04 0 
0.12 0.04 0 0.14 0.04 0 0.16 0.04 0 
0.18 0.04 0 0.2 0.04 0 0.22 0.04 0 
0.24 0.04 0 0.26 0.04 0 0.28 0.04 0 
0.3 0.04 0 0.32 0.04 0 0.34 0.04 0 
0.36 0.04 0 0.38 0.04 0 0.4 0.04 0 
0.42 0.04 0 0.44 0.04 0 0.46 0.04 0 
0.48 0.04 0 0.5 0.04 0 0.52 0.04 0 
0.54 0.04 0 0.56 0.04 0 0.58 0.04 0 
0.6 0.04 0 0.62 0.04 0 0.64 0.04 0 
0.66 0.04 0 0.68 0.04 0 0.7 0.04 0 
0.72 0.04 0 0.74 0.04 0 0.76 0.04 0 
0.78 0.04 0 0.8 0.04 0 0.82 0.04 0 
0.84 0.04 0 0.86 0.04 0 0.88 0.04 0 
0.9 0.04 0 0.92 0.04 0 0.94 0.04 0 
0.96 0.04 0 0.98 0.04 0 1 0.04 0 
0 0.06 0 0.02 0.06 0 0.04 0.06 0 
0.06 0.06 0 0.08 0.06 0 0.1 0.06 0 
0.12 0.06 0 0.14 0.06 0 0.16 0.06 0 
0.18 0.06 0 0.2 0.06 0 0.22 0.06 0 
0.24 0.06 0 0.26 0.06 0 0.28 0.06 0 
0.3 0.06 0 0.32 0.06 0 0.34 0.06 0 
0.36 0.06 0 0.38 0.06 0 0.4 0.06 0 
0.42 0.06 0 0.44 0.06 0 0.46 0.06 0 
0.48 0.06 0 0.5 0.06 0 0.52 0.06 0 
0.54 0.06 0 0.56 0.06 0 0.58 0.06 0 
0.6 0.06 0 0.62 0.06 0 0.64 0.06 0 
0.66 0.06 0 0.68 0.06 0 0.7 0.06 0 
0.72 0.06 0 0.74 0.06 0 0.76 0.06 0 
0.78 0.06 0 0.8 0.06 0 0.82 0.06 0 
0.84 0.06 0 0.86 0.06 0 0.88 0.06 0 
0.9 0.06 0 0.92 0.06 0 0.94 0.06 0 
0.96 0.06 0 0.98 0.06 0 1 0.06 0 
0 0.08 0 0.02 0.08 0 0.04 0.08 0 
0.06 0.08 0 0.08 0.08 0 0.1 0.08 0 
0.12 0.08 0 0.14 0.08 0 0.16 0.08 0 
0.18 0.08 0 0.2 0.08 0 0.22 0.08 0 
0.24 0.08 0 0.26 0.08 0 0.28 0.08 0 
0.3 0.08 0 0.32 0.08 0 0.34 0.08 0 
0.36 0.08 0 0.38 0.08 0 0.4 0.08 0 
0.42 0.08 0 0.44 0.08 0 0.46 0.08 0 
0.48 0.08 0 0.5 0.08 0 0.52 0.08 0 
0.54 0.08 0 0.56 0.08 0 0.58 0.08 0 
0.6 0.08 0 0.62 0.08 0 0.64 0.08 0 
0.66 0.08 0 0.68 0.08 0 0.7 0.08 0 
0.72 0.08 0 0.74 0.08 0 0.76 0.08 0 
0.78 0.08 0 0.8 0.08 0 0.82 0.08 0 
0.84 0.08 0 0.86 0.08 0 0.88 0.08 0 
0.9 0.08 0 0.92 0.08 0 0.94 0.08 0 
0.96 0.08 0 0.98 0.08 0 1 0.08 0 
0 0.1 0 0.02 0.1 0 0.04 0.1 0 
0.06 0.1 0 0.08 0.1 0 0.1 0.1 0 
0.12 0.1 0 0.14 0.1 0 0.16 0.1 0 
0.18 0.1 0 0.2 0.1 0 0.22 0.1 0 
0.24 0.1 0 0.26 0.1 0 0.28 0.1 0 
0.3 0.1 0 0.32 0.1 0 0.34 0.1 0 
0.36 0.1 0 0.38 0.1 0 0.4 0.1 0 
0.42 0.1 0 0.44 0.1 0 0.46 0.1 0 
0.48 0.1 0 0.5 0.1 0 0.52 0.1 0 
0.54 0.1 0 0.56 0.1 0 0.58 0.1 0 
0.6 0.1 0 0.62 0.1 0 0.64 0.1 0 
0.66 0.1 0 0.68 0.1 0 0.7 0.1 0 
0.72 0.1 0 0.74 0.1 0 0.76 0.1 0 
0.78 0.1 0 0.8 0.1 0 0.82 0.1 0 
0.84 0.1 0 0.86 0.1 0 0.88 0.1 0 
0.9 0.1 0 0.92 0.1 0 0.94 0.1 0 
0.96 0.1 0 0.98 0.1 0 1 0.1 0 
0 0.12 0 0.02 0.12 0 0.04 0.12 0 
0.06 0.12 0 0.08 0.12 0 0.1 0.12 0 
0.12 0.12 0 0.14 0.12 0 0.16 0.12 0 
0.18 0.12 0 0.2 0.12 0 0.22 0.12 0 
0.24 0.12 0 0.26 0.12 0 0.28 0.12 0 
0.3 0.12 0 0.32 0.12 0 0.34 0.12 0 
0.36 0.12 0 0.38 0.12 0 0.4 0.12 0 
0.42 0.12 0 0.44 0.12 0 0.46 0.12 0 
0.48 0.12 0 0.5 0.12 0 0.52 0.12 0 
0.54 0.12 0 0.56 0.12 0 0.58 0.12 0 
0.6 0.12 0 0.62 0.12 0 0.64 0.12 0 
0.66 0.12 0 0.68 0.12 0 0.7 0.12 0 
0.72 0.12 0 0.74 0.12 0 0.76 0.12 0 
0.78 0.12 0 0.8 0.12 0 0.82 0.12 0 
0.84 0.12 0 0.86 0.12 0 0.88 0.12 0 
0.9 0.12 0 0.92 0.12 0 0.94 0.12 0 
0.96 0.12 0 0.98 0.12 0 1 0.12 0 
0 0.14 0 0.02 0.14 0 0.04 0.14 0 
0.06 0.14 0 0.08 0.14 0 0.1 0.14 0 
0.12 0.14 0 0.14 0.14 0 0.16 0.14 0 
0.18 0.14 0 0.2 0.14 0 0.22 0.14 0 
0.24 0.14 0 0.26 0.14 0 0.28 0.14 0 
0.3 0.14 0 0.32 0.14 0 0.34 0.14 0 
0.36 0.14 0 0.38 0.14 0 0.4 0.14 0 
0.42 0.14 0 0.44 0.14 0 0.46 0.14 0 
0.48 0.14 0 0.5 0.14 0 0.52 0.14 0 
0.54 0.14 0 0.56 0.14 0 0.58 0.14 0 
0.6 0.14 0 0.62 0.14 0 0.64 0.14 0 
0.66 0.14 0 0.68 0.14 0 0.7 0.14 0 
0.72 0.14 0 0.74 0.14 0 0.76 0.14 0 
0.78 0.14 0 0.8 0.14 0 0.82 0.14 0 
0.84 0.14 0 0.86 0.14 0 0.88 0.14 0 
0.9 0.14 0 0.92 0.14 0 0.94 0.14 0 
0.96 0.14 0 0.98 0.14 0 1 0.14 0 
0 0.16 0 0.02 0.16 0 0.04 0.16 0 
0.06 0.16 0 0.08 0.16 0 0.1 0.16 0 
0.12 0.16 0 0.14 0.16 0 0.16 0.16 0 
0.18 0.16 0 0.2 0.16 0 0.22 0.16 0 
0.24 0.16 0 0.26 0.16 0 0.28 0.16 0 
0.3 0.16 0 0.32 0.16 0 0.34 0.16 0 
0.36 0.16 0 0.38 0.16 0 0.4 0.16 0 
0.42 0.16 0 0.44 0.16 0 0.46 0.16 0 
0.48 0.16 0 0.5 0.16 0 0.52 0.16 0 
0.54 0.16 0 0.56 0.16 0 0.58 0.16 0 
0.6 0.16 0 0.62 0.16 0 0.64 0.16 0 
0.66 0.16 0 0.68 0.16 0 0.7 0.16 0 
0.72 0.16 0 0.74 0.16 0 0.76 0.16 0 
0.78 0.16 0 0.8 0.16 0 0.82 0.16 0 
0.84 0.16 0 0.86 0.16 0 0.88 0.16 0 
0.9 0.16 0 0.92 0.16 0 0.94 0.16 0 
0.96 0.16 0 0.98 0.16 0 1 0.16 0 
0 0.18 0 0.02 0.18 0 0.04 0.18 0 
0.06 0.18 0 0.08 0.18 0 0.1 0.18 0 
0.12 0.18 0 0.14 0.18 0 0.16 0.18 0 
0.18 0.18 0 0.2 0.18 0 0.22 0.18 0 
0.24 0.18 0 0.26 0.18 0 0.28 0.18 0 
0.3 0.18 0 0.32 0.18 0 0.34 0.18 0 
0.36 0.18 0 0.38 0.18 0 0.4 0.18 0 
0.42 0.18 0 0.44 0.18 0 0.46 0.18 0 
0.48 0.18 0 0.5 0.18 0 0.52 0.18 0 
0.54 0.18 0 0.56 0.18 0 0.58 0.18 0 
0.6 0.18 0 0.62 0.18 0 0.64 0.18 0 
0.66 0.18 0 0.68 0.18 0 0.7 0.18 0 
0.72 0.18 0 0.74 0.18 0 0.76 0.18 0 
0.78 0.18 0 0.8 0.18 0 0.82 0.18 0 
0.84 0.18 0 0.86 0.18 0 0.88 0.18 0 
0.9 0.18 0 0.92 0.18 0 0.94 0.18 0 
0.96 0.18 0 0.98 0.18 0 1 0.18 0 
0 0.2 0 0.02 0.2 0 0.04 0.2 0 
0.06 0.2 0 0.08 0.2 0 0.1 0.2 0 
0.12 0.2 0 0.14 0.2 0 0.16 0.2 0 
0.18 0.2 0 0.2 0.2 0 0.22 0.2 0 
0.24 0.2 0 0.26 0.2 0 0.28 0.2 0 
0.3 0.2 0 0.32 0.2 0 0.34 0.2 0 
0.36 0.2 0 0.38 0.2 0 0.4 0.2 0 
0.42 0.2 0 0.44 0.2 0 0.46 0.2 0 
0.48 0.2 0 0.5 0.2 0 0.52 0.2 0 
0.54 0.2 0 0.56 0.2 0 0.58 0.2 0 
0.6 0.2 0 0.62 0.2 0 0.64 0.2 0 
0.66 0.2 0 0.68 0.2 0 0.7 0.2 0 
0.72 0.2 0 0.74 0.2 0 0.76 0.2 0 
0.78 0.2 0 0.8 0.2 0 0.82 0.2 0 
0.84 0.2 0 0.86 0.2 0 0.88 0.2 0 
0.9 0.2 0 0.92 0.2 0 0.94 0.2 0 
0.96 0.2 0 0.98 0.2 0 1 0.2 0 
0 0.22 0 0.02 0.22 0 0.04 0.22 0 
0.06 0.22 0 0.08 0.22 0 0.1 0.22 0 
0.12 0.22 0 0.14 0.22 0 0.16 0.22 0 
0.18 0.22 0 0.2 0.22 0 0.22 0.22 0 
0.24 0.22 0 0.26 0.22 0 0.28 0.22 0 
0.3 0.22 0 0.32 0.22 0 0.34 0.22 0 
0.36 0.22 0 0.38 0.22 0 0.4 0.22 0 
0.42 0.22 0 0.44 0.22 0 0.46 0.22 0 
0.48 0.22 0 0.5 0.22 0 0.52 0.22 0 
0.54 0.22 0 0.56 0.22 0 0.58 0.22 0 
0.6 0.22 0 0.62 0.22 0 0.64 0.22 0 
0.66 0.22 0 0.68 0.22 0 0.7 0.22 0 
0.72 0.22 0 0.74 0.22 0 0.76 0.22 0 
0.78 0.22 0 0.8 0.22 0 0.82 0.22 0 
0.84 0.22 0 0.86 0.22 0 0.88 0.22 0 
0.9 0.22 0 0.92 0.22 0 0.94 0.22 0 
0.96 0.22 0 0.98 0.22 0 1 0.22 0 
0 0.24 0 0.02 0.24 0 0.04 0.24 0 
0.06 0.24 0 0.08 0.24 0 0.1 0.24 0 
0.12 0.24 0 0.14 0.24 0 0.16 0.24 0 
0.18 0.24 0 0.2 0.24 0 0.22 0.24 0 
0.24 0.24 0 0.26 0.24 0 0.28 0.24 0 
0.3 0.24 0 0.32 0.24 0 0.34 0.24 0 
0.36 0.24 0 0.38 0.24 0 0.4 0.24 0 
0.42 0.24 0 0.44 0.24 0 0.46 0.24 0 
0.48 0.24 0 0.5 0.24 0 0.52 0.24 0 
0.54 0.24 0 0.56 0.24 0 0.58 0.24 0 
0.6 0.24 0 0.62 0.24 0 0.64 0.24 0 
0.66 0.24 0 0.68 0.24 0 0.7 0.24 0 
0.72 0.24 0 0.74 0.24 0 0.76 0.24 0 
0.78 0.24 0 0.8 0.24 0 0.82 0.24 0 
0.84 0.24 0 0.86 0.24 0 0.88 0.24 0 
0.9 0.24 0 0.92 0.24 0 0.94 0.24 0 
0.96 0.24 0 0.98 0.24 0 1 0.24 0 
0 0.26 0 0.02 0.26 0 0.04 0.26 0 
0.06 0.26 0 0.08 0.26 0 0.1 0.26 0 
0.12 0.26 0 0.14 0.26 0 0.16 0.26 0 
0.18 0.26 0 0.2 0.26 0 0.22 0.26 0 
0.24 0.26 0 0.26 0.26 0 0.28 0.26 0 
0.3 0.26 0 0.32 0.26 0 0.34 0.26 0 
0.36 0.26 0 0.38 0.26 0 0.4 0.26 0 
0.42 0.26 0 0.44 0.26 0 0.46 0.26 0 
0.48 0.26 0 0.5 0.26 0 0.52 0.26 0 
0.54 0.26 0 0.56 0.26 0 0.58 0.26 0 
0.6 0.26 0 0.62 0.26 0 0.64 0.26 0 
0.66 0.26 0 0.68 0.26 0 0.7 0.26 0 
0.72 0.26 0 0.74 0.26 0 0.76 0.26 0 
0.78 0.26 0 0.8 0.26 0 0.82 0.26 0 
0.84 0.26 0 0.86 0.26 0 0.88 0.26 0 
0.9 0.26 0 0.92 0.26 0 0.94 0.26 0 
0.96 0.26 0 0.98 0.26 0 1 0.26 0 
0 0.28 0 0.02 0.28 0 0.04 0.28 0 
0.06 0.28 0 0.08 0.28 0 0.1 0.28 0 
0.12 0.28 0 0.14 0.28 0 0.16 0.28 0 
0.18 0.28 0 0.2 0.28 0 0.22 0.28 0 
0.24 0.28 0 0.26 0.28 0 0.28 0.28 0 
0.3 0.28 0 0.32 0.28 0 0.34 0.28 0 
0.36 0.28 0 0.38 0.28 0 0.4 0.28 0 
0.42 0.28 0 0.44 0.28 0 0.46 0.28 0 
0.48 0.28 0 0.5 0.28 0 0.52 0.28 0 
0.54 0.28 0 0.56 0.28 0 0.58 0.28 0 
0.6 0.28 0 0.62 0.28 0 0.64 0.28 0 
0.66 0.28 0 0.68 0.28 0 0.7 0.28 0 
0.72 0.28 0 0.74 0.28 0 0.76 0.28 0 
0.78 0.28 0 0.8 0.28 0 0.82 0.28 0 
0.84 0.28 0 0.86 0.28 0 0.88 0.28 0 
0.9 0.28 0 0.92 0.28 0 0.94 0.28 0 
0.96 0.28 0 0.98 0.28 0 1 0.28 0 
0 0.3 0 0.02 0.3 0 0.04 0.3 0 
0.06 0.3 0 0.08 0.3 0 0.1 0.3 0 
0.12 0.3 0 0.14 0.3 0 0.16 0.3 0 
0.18 0.3 0 0.2 0.3 0 0.22 0.3 0 
0.24 0.3 0 0.26 0.3 0 0.28 0.3 0 
0.3 0.3 0 0.32 0.3 0 0.34 0.3 0 
0.36 0.3 0 0.38 0.3 0 0.4 0.3 0 
0.42 0.3 0 0.44 0.3 0 0.46 0.3 0 
0.48 0.3 0 0.5 0.3 0 0.52 0.3 0 
0.54 0.3 0 0.56 0.3 0 0.58 0.3 0 
0.6 0.3 0 0.62 0.3 0 0.64 0.3 0 
0.66 0.3 0 0.68 0.3 0 0.7 0.3 0 
0.72 0.3 0 0.74 0.3 0 0.76 0.3 0 
0.78 0.3 0 0.8 0.3 0 0.82 0.3 0 
0.84 0.3 0 0.86 0.3 0 0.88 0.3 0 
0.9 0.3 0 0.92 0.3 0 0.94 0.3 0 
0.96 0.3 0 0.98 0.3 0 1 0.3 0 
0 0.32 0 0.02 0.32 0 0.04 0.32 0 
0.06 0.32 0 0.08 0.32 0 0.1 0.32 0 
0.12 0.32 0 0.14 0.32 0 0.16 0.32 0 
0.18 0.32 0 0.2 0.32 0 0.22 0.32 0 
0.24 0.32 0 0.26 0.32 0 0.28 0.32 0 
0.3 0.32 0 0.32 0.32 0 0.34 0.32 0 
0.36 0.32 0 0.38 0.32 0 0.4 0.32 0 
0.42 0.32 0 0.44 0.32 0 0.46 0.32 0 
0.48 0.32 0 0.5 0.32 0 0.52 0.32 0 
0.54 0.32 0 0.56 0.32 0 0.58 0.32 0 
[...]
CELL_DATA 2500
FIELD FieldData 2
pressure 1 2500 double
-0.0060518170796 -0.0060487071678 -0.006067264592 -0.0061113359827 -0.0061797862093 -0.006270244659 -0.0063799677475 -0.0065070207563 -0.0066505464453 
-0.0068103310271 -0.0069875675672 -0.0071826250833 -0.007396130009 -0.0076274286486 -0.0078737898431 -0.0081305558512 -0.0083905384088 -0.0086441544487 
-0.0088795204246 -0.0090827129772 -0.0092382511601 -0.0093296955773 -0.0093404068184 -0.0092544643938 -0.0090576088499 -0.008738240743 -0.0082885282662 
-0.0077055759844 -0.0069927204205 -0.0061611102959 -0.005231648143 -0.0042551710075 -0.0032685732485 -0.002318647038 -0.0014584521117 -0.00074278904344 
-0.00022217081618 6.4745324161e-05 9.9496713101e-05 -0.0001085273837 -0.00049978598595 -0.0010042956753 -0.0015424437034 -0.002037329348 -0.0024359777738 
-0.0027235642073 -0.0029066045957 -0.0029992511794 -0.0030176780705 -0.0029850713283 -0.0060563735974 -0.0060504855911 -0.0060689624289 -0.0061126124078 
-0.0061796157751 -0.006266321153 -0.0063695834981 -0.0064877965605 -0.0066202757575 -0.006767160952 -0.0069320082514 -0.0071150694134 -0.0073172852687 
-0.0075384204142 -0.0077762029265 -0.0080262235432 -0.0082819104064 -0.008534267808 -0.0087718561005 -0.0089810924439 -0.0091466088874 -0.0092518581963 
-0.0092799389405 -0.009214482255 -0.0090406374621 -0.0087461321359 -0.0083222964801 -0.0077650633503 -0.0070759142157 -0.0062626907938 -0.0053760524665 
-0.0044318807343 -0.003472566537 -0.0025463497146 -0.0017060279229 -0.00100550152 -0.00049407800868 -0.00020902740337 -0.00016710845678 -0.00035644967883 
-0.000731448688 -0.001190959662 -0.0016804971852 -0.0021272263725 -0.0024801252119 -0.0027295979805 -0.0028863670726 -0.0029672930108 -0.0029872418421 
-0.0029537629456 -0.0060331284299 -0.0060274147317 -0.0060492929065 -0.0060964672103 -0.0061640338799 -0.006247490373 -0.0063441196473 -0.0064521620175 
-0.0065734282906 -0.0067099882211 -0.0068650737252 -0.0070409199299 -0.0072392793122 -0.0074603303042 -0.0077022715147 -0.0079612923397 -0.0082310801985 
-0.0085025717792 -0.0087641208311 -0.0090016206503 -0.0091989319028 -0.009338625256 -0.0094028048918 -0.0093740610165 -0.0092365310517 -0.0089769142236 
-0.0085854490525 -0.0080567450506 -0.0073897333491 -0.0066170714242 -0.0057564533899 -0.0048314520439 -0.0038841611931 -0.0029627851158 -0.0021200065497 
-0.0014095669822 -0.00088085873476 -0.00057172288341 -0.00050003907345 -0.00065545610772 -0.00099368928196 -0.0014372375161 -0.0018954363087 -0.0023144666029 
-0.0026351780074 -0.0028437205112 -0.002965953268 -0.0030228335697 -0.0030303041005 -0.0029887268587 -0.0059789650199 -0.0059801082951 -0.0060096620984 
-0.0060623372192 -0.0061308156618 -0.0062119320427 -0.0063022469609 -0.0064029362511 -0.0065173677772 -0.0066496383969 -0.0068041448984 -0.0069848180925 
-0.0071941556768 -0.0074328419975 -0.0076996033818 -0.0079905136448 -0.0082986586626 -0.0086141762771 -0.0089241990927 -0.0092131393703 -0.0094634060375 
-0.0096561456002 -0.0097721578397 -0.0097929560629 -0.009701802046 -0.0094847796716 -0.0091318918349 -0.0086380777896 -0.008004493898 -0.0072677772496 
-0.0064277318182 -0.0055159872146 -0.0045725169546 -0.0036441441189 -0.0027825163543 -0.0020407593693 -0.0014684160831 -0.0011046683547 -0.00097032767927 
-0.0010598975856 -0.0013361592632 -0.0017312971635 -0.0021591930293 -0.002549349765 -0.0028540514962 -0.0030349942153 -0.0031270831495 -0.0031593917355 
-0.0031527319902 -0.0031095423991 -0.0058955664226 -0.0059096707995 -0.0059492857321 -0.0060072333383 -0.0060780761064 -0.0061579595378 -0.0062461582789 
-0.0063461886968 -0.0064633689268 -0.0066037428898 -0.0067734960596 -0.0069775239822 -0.0072189037521 -0.0074987229353 -0.0078151948707 -0.0081632772706 
-0.0085347027641 -0.008917748859 -0.009297482296 -0.0096564572957 -0.0099753748723 -0.010233948409 -0.010411963296 -0.010490289819 -0.010451963023 
-0.010283296746 -0.0099748578789 -0.0095223277307 -0.0089354713309 -0.0082278358064 -0.0074093453663 -0.006509327224 -0.0055651202369 -0.0046210612468 
-0.003726660353 -0.0029335973264 -0.0022911936258 -0.0018402690086 -0.001605801753 -0.001589518461 -0.0017646149559 -0.0020758204628 -0.0024479515523 
-0.0028032343578 -0.0030751577475 -0.0032557985004 -0.0033328495061 -0.0033524269841 -0.0033397652351 -0.0033031819086 -0.0057870053666 -0.0058177093558 
-0.0058676122884 -0.0059318208103 -0.0060062396131 -0.0060889712569 -0.0061828321989 -0.006293408235 -0.0064278801819 -0.0065942645652 -0.0067996986394 
-0.0070495569812 -0.0073471729806 -0.00769279517 -0.0080831221702 -0.0085113779915 -0.0089669690457 -0.009435727523 -0.0099006226256 -0.010342321014 
-0.010740008666 -0.011072456326 -0.011318977433 -0.011460464694 -0.011480481256 -0.011366213968 -0.011109374018 -0.010707015836 -0.010170489664 
-0.009496683564 -0.0087031074556 -0.0078159013166 -0.0068689862189 -0.0059032012691 -0.0049648590697 -0.0041032779944 -0.0033669574723 -0.0027982859184 
-0.0024270716541 -0.0022637817633 -0.0022942133941 -0.0024779677595 -0.0027530345959 -0.0030471262051 -0.0032944420903 -0.0034594498539 -0.0035466180725 
-0.0035740439113 -0.0035687900662 -0.0035456873531 -0.0056602475292 -0.0057091510175 -0.0057695926295 -0.0058404894628 -0.0059214658334 -0.0060147841933 
-0.0061257006636 -0.0062616065514 -0.0064315667221 -0.0066444480142 -0.0069076353477 -0.0072265694761 -0.0076034975058 -0.0080368749368 -0.0085214490814 
-0.0090478471069 -0.0096028092257 -0.010169949954 -0.010730208481 -0.011262651999 -0.01174553941 -0.012157215426 -0.012477088078 -0.012686670933 
-0.012770469312 -0.012716855241 -0.012518954946 -0.012175537253 -0.011690292363 -0.011057494257 -0.010293809987 -0.0094224560749 -0.0084734549731 
-0.007483349417 -0.0064942948146 -0.0055522621203 -0.0047040878064 -0.0039932237114 -0.0034543109833 -0.0031072029467 -0.0029516279322 -0.0029642611014 
-0.0031000525037 -0.0032992439164 -0.0035009662728 -0.0036628015546 -0.0037648026229 -0.0038084527941 -0.0038235510397 -0.0038187250586 -0.0055266122245 
-0.0055941015851 -0.005664284632 -0.0057440703821 -0.00583822981 -0.005952448089 -0.0060939203453 -0.0062719166281 -0.0064962593707 -0.0067757845619 
-0.0071177459357 -0.0075263146689 -0.0080017309946 -0.0085403788996 -0.0091342654946 -0.0097712254464 -0.010435709985 -0.011109167923 -0.011770817562 
-0.01239873669 -0.012970681869 -0.01346502047 -0.01386174433 -0.014143264127 -0.014295183483 -0.014307075541 -0.014173189613 -0.013893286197 
-0.013463100129 -0.012876475303 -0.012147784273 -0.011296842636 -0.010349297693 -0.0093367012437 -0.0082961371318 -0.0072691816047 -0.0062999394321 
-0.0054319509939 -0.0047039741921 -0.0041449695652 -0.0037690325227 -0.003571468715 -0.0035274286391 -0.0035945615777 -0.0037208176007 -0.003857046623 
-0.0039687940125 -0.0040540828149 -0.0041002906134 -0.0041164229254 -0.0054034912678 -0.0054877630726 -0.0055688501856 -0.0056620703044 -0.0057776698275 
-0.00592389966 -0.0061100288777 -0.0063461854741 -0.006641970989 -0.0070059504053 -0.0074440102252 -0.0079581318175 -0.0085464116916 -0.0092024091102 
-0.0099152370276 -0.010670369253 -0.011449946436 -0.012233519642 -0.012999178038 -0.013724316739 -0.014386538786 -0.014964678594 -0.015439528086 
-0.015794512678 -0.016016362612 -0.016095663766 -0.016027463697 -0.015812012798 -0.015439132953 -0.014902337616 -0.014213537902 -0.013388925922 
-0.012449410416 -0.011420982204 -0.0103348584 -0.0092271855169 -0.0081380713833 -0.0071097262821 -0.0061835994076 -0.0053965533548 -0.0047764301176 
-0.0043376461791 -0.0040777338855 -0.003975930374 -0.0039951256853 -0.0040886609114 -0.0042128379604 -0.0043299812487 -0.0044068364466 -0.0044449046338 
-0.0053132452434 -0.0054131011641 -0.0055067020497 -0.0056188553112 -0.0057639763349 -0.005952950882 -0.0061962727566 -0.0065038559219 -0.0068850259177 
-0.0073470321782 -0.0078934441371 -0.0085240566317 -0.0092341039 -0.010014128297 -0.010850791255 -0.011727084363 -0.012623018249 -0.013516800642 
-0.014385578262 -0.015206328322 -0.015956937759 -0.016616888842 -0.017167880728 -0.017594449569 -0.017884396547 -0.018029212872 -0.018024591058 
-0.017870927094 -0.017554950715 -0.017069943173 -0.016425463274 -0.015634040939 -0.014711699834 -0.013678554352 -0.012559352723 -0.011383844076 
-0.010186779785 -0.0090073084579 -0.0078875456992 -0.0068701638163 -0.0059949926403 -0.005294749717 -0.0047901986155 -0.0044852603385 -0.004363056368 
-0.0043848439078 -0.0044951946012 -0.0046332587768 -0.0047530838927 -0.0048163899538 -0.005281253604 -0.005394811355 -0.0055032484062 -0.0056391963834 
-0.0058210259582 -0.0060615679615 -0.0063713606805 -0.0067601991307 -0.0072363526997 -0.0078047617431 -0.0084668186364 -0.009219489905 -0.010054864814 
-0.010960922533 -0.011921657384 -0.012917644334 -0.01392728044 -0.014927511081 -0.015894724737 -0.0168059311 -0.017639439693 -0.018375472808 
-0.018996810995 -0.019489148407 -0.019841391441 -0.020046008515 -0.020099270497 -0.020001553468 -0.019739408999 -0.019306313398 -0.018709646521 
-0.017958473864 -0.017064077182 -0.016040643504 -0.014906109036 -0.013683082568 -0.012399684273 -0.011090116386 -0.0097947021494 -0.0085590858598 
-0.0074322585199 -0.0064630512909 -0.0056947479861 -0.0051575905728 -0.0048594980492 -0.0047770159338 -0.0048523465491 -0.005005449034 -0.0051606479282 
-0.005248605269 -0.0053309160252 -0.005456515311 -0.0055813881299 -0.0057449974828 -0.0059689504525 -0.0062666649362 -0.0066488573682 -0.0071247352426 
-0.0077004789491 -0.0083789626735 -0.0091589088706 -0.010034059102 -0.010993834827 -0.01202338825 -0.013103984419 -0.014214278108 -0.015331050995 
-0.016430090993 -0.017487500474 -0.018480407575 -0.0193876089 -0.020190309671 -0.020872467294 -0.021421038587 -0.021826261986 -0.022081696571 
-0.022184288927 -0.022134460531 -0.021920729267 -0.021537743617 -0.020990978237 -0.020286407048 -0.019430943398 -0.018433147883 -0.017304203084 
-0.016059172182 -0.014718503153 -0.013309648811 -0.011868520084 -0.010440393407 -0.0090797003358 -0.007847918635 -0.0068085670161 -0.0060182366028 
-0.0055131082539 -0.0052924267465 -0.005305693348 -0.0054584174918 -0.0056417477236 -0.0057557507232 -0.0054815602069 -0.0056168232532 -0.0057588563353 
-0.0059526694006 -0.0062213671945 -0.0065788970241 -0.0070359877558 -0.0076002099422 -0.0082759256894 -0.0090636754774 -0.009959001232 -0.010952925571 
-0.01203196235 -0.013178249908 -0.014370818665 -0.015586362118 -0.016800073156 -0.017987083271 -0.019123245205 -0.020185833908 -0.021154429583 
-0.022011314118 -0.022741742754 -0.02333425267 -0.023780591314 -0.024075641014 -0.02421725214 -0.024205962022 -0.02403360274 -0.02369720449 
-0.023200616831 -0.0225472452 -0.021740331792 -0.020783486187 -0.019681600287 -0.018442253703 -0.017077640835 -0.015606992747 -0.014059304039 
-0.01247595911 -0.010912528549 -0.0094386229008 -0.0081342190345 -0.0070805234691 -0.0063436858377 -0.0059516790867 -0.0058705544995 -0.0059981067212 
-0.0061944670247 -0.0063470530036 -0.005745437271 -0.0058873937666 -0.0060465950264 -0.0062710486204 -0.0065847162191 -0.0070020824629 -0.0075328469332 
-0.0081831350931 -0.0089554963795 -0.0098475392835 -0.010852137372 -0.01195746416 -0.013146824375 -0.01439984787 -0.015693310735 -0.017001898139 
-0.018299749029 -0.019561350141 -0.020762295442 -0.021880344549 -0.022895934428 -0.023792534075 -0.024557056438 -0.025179778559 -0.02565422822 
-0.025976863177 -0.026146566979 -0.026164222757 -0.02602553417 -0.025730758434 -0.025282508813 -0.024682338406 -0.023930721328 -0.023027328672 
-0.021971719006 -0.020764609396 -0.019409939787 -0.0179178199 -0.016308269925 -0.014615428655 -0.012891482501 -0.011208959457 -0.0096592907686 
-0.0083448422659 -0.007361495073 -0.0067705343265 -0.0065646714805 -0.0066475909134 -0.0068608925265 -0.007042764915 -0.0061265481936 -0.0062722633142 
-0.0064474234944 -0.0067012226161 -0.0070583399961 -0.0075327588417 -0.0081331298505 -0.008864396992 -0.0097266695004 -0.010715079751 -0.011819890371 
-0.013026030572 -0.014314109092 -0.015661314501 -0.017042057503 -0.018429584572 -0.019797016305 -0.021118147769 -0.022368688137 -0.023526948714 
-0.024574312506 -0.025495812374 -0.026280137357 -0.026919556426 -0.027409556107 -0.027748245964 -0.027935772917 -0.027973524435 -0.027860977634 
-0.027601857014 -0.027197992642 -0.026649853818 -0.025956255737 -0.025114250733 -0.024119411071 -0.022966783892 -0.021652778385 -0.020178235768 
-0.018552836226 -0.016800664491 -0.014966230028 -0.013119493461 -0.011357435922 -0.0097985958809 -0.0085663349544 -0.0077576764978 -0.0074002137025 
-0.0074150512384 -0.0076290805611 -0.0078436250097 -0.0066211447704 -0.0067675186268 -0.0069563997811 -0.0072373103664 -0.0076345197715 -0.0081611264092 
-0.0088251444338 -0.0096297608587 -0.010572953177 -0.011647658421 -0.01284108336 -0.014135400293 -0.01550873748 -0.016935683463 -0.018388884537 
-0.01984026564 -0.02126184201 -0.022627124765 -0.023912033955 -0.025095492076 -0.026160224009 -0.02709292727 -0.027884276093 -0.028528623676 
-0.029023408334 -0.02936850192 -0.029565256525 -0.029615736445 -0.029522744813 -0.029292805725 -0.028927474593 -0.028426986486 -0.02778963375 
-0.027011288421 -0.026085238819 -0.025002567344 -0.023753533605 -0.022330424879 -0.020732190393 -0.018970935211 -0.017079810913 -0.015120901506 
-0.013190392873 -0.011416784859 -0.0099466211851 -0.0089124581064 -0.0083824329828 -0.0083061927134 -0.0085057867353 -0.008750626242 -0.0072184988896 
-0.007362222805 -0.0075623088961 -0.0078671401007 -0.0082996861541 -0.0088725183969 -0.0095925572521 -0.010461301051 -0.011475065405 -0.01262416855 
-0.013893159357 -0.015261854073 -0.016705726968 -0.018197374809 -0.019707929302 -0.021207869585 -0.022668547827 -0.024063353156 -0.025368436498 
-0.02656376212 -0.027633513194 -0.028566209741 -0.029354570556 -0.029994965035 -0.030486751894 -0.030831268743 -0.031031074044 -0.031088953363 
-0.031010182764 -0.030802909603 -0.030468933217 -0.030008950123 -0.029421802487 -0.028703665909 -0.027847308696 -0.02684183946 -0.025673397514 
-0.024327315318 -0.022792451271 -0.021068129733 -0.019173498816 -0.017158115157 -0.015111033406 -0.013163672517 -0.011479711686 -0.010224460914 
-0.0095094768494 -0.0093226142377 -0.0094928486475 -0.0097622232176 -0.0079021514386 -0.0080402986661 -0.0082488656699 -0.0085735951546 -0.0090362101967 
-0.0096484255741 -0.010415837363 -0.011338801734 -0.012411655104 -0.013622327504 -0.014953287305 -0.016381859071 -0.017881431384 -0.01942302742 
-0.020976127384 -0.022510234546 -0.023996285161 -0.025407525863 -0.026720807402 -0.027917284936 -0.028982706028 -0.029907504618 -0.030686344635 
-0.031317490236 -0.031801789351 -0.03214191097 -0.032341287179 -0.032403257754 -0.032334727073 -0.032144042718 -0.031833591065 -0.031405145965 
-0.030858978129 -0.030192730036 -0.029400322382 -0.028471040722 -0.027389252009 -0.026135618243 -0.024690649274 -0.02304138992 -0.021191606098 
-0.01917471285 -0.017066861087 -0.014995133253 -0.013133036818 -0.011673545262 -0.010771624363 -0.010460789173 -0.010589750545 -0.010881751426 
-0.0086519250996 -0.0087821122605 -0.0089960880576 -0.0093365164296 -0.0098236493616 -0.010467827901 -0.01127376859 -0.012240527285 -0.01336046571 
-0.014619813701 -0.015998927968 -0.01747311178 -0.019014263876 -0.02059172916 -0.022173799882 -0.023729337508 -0.025228827151 -0.026645860085 
-0.027958173301 -0.029148179078 -0.030203346119 -0.031115909066 -0.031882336282 -0.032502335613 -0.032978030643 -0.033312836208 -0.033510653075 
-0.033575320513 -0.033514217986 -0.033334737571 -0.033040170722 -0.032633678158 -0.032117427294 -0.031491469783 -0.030752255859 -0.029891058996 
-0.02889291823 -0.027736628024 -0.026396925559 -0.024850278703 -0.023085181664 -0.021116777067 -0.019003629144 -0.016861558054 -0.014865891048 
-0.01323029524 -0.012150207268 -0.011708982887 -0.011786087221 -0.012092910568 -0.0094458352004 -0.0095658986953 -0.0097821640122 -0.010134134929 
-0.010639943172 -0.011308728496 -0.012144309217 -0.013144212303 -0.014299497603 -0.01559481933 -0.017008744004 -0.018515291498 -0.02008485219 
-0.021685498077 -0.023284762338 -0.024850863386 -0.026354296378 -0.027769226253 -0.029074325788 -0.030253469742 -0.031295724896 -0.032195014801 
-0.032949203509 -0.033559191033 -0.034027726515 -0.034358489681 -0.034555560803 -0.034622718486 -0.034567093673 -0.034394464518 -0.034108956017 
-0.033715183475 -0.03321756846 -0.032619025734 -0.031919299835 -0.031113182076 -0.030188538643 -0.029125011135 -0.027894693302 -0.026466326725 
-0.024814763893 -0.022936396193 -0.020869007685 -0.018711177605 -0.016632008487 -0.014857523624 -0.013617948417 -0.013047191405 -0.013064577876 
-0.013378787899 -0.010261462921 -0.010369398504 -0.010584960389 -0.010944136228 -0.011462863253 -0.012149130248 -0.013005441434 -0.014028279245 
-0.01520767346 -0.016526864186 -0.017963420977 -0.019490201633 -0.021076396249 -0.022689334192 -0.024295857977 -0.025863930136 -0.027364341498 
-0.028771894026 -0.0300663946 -0.031233059438 -0.032262494243 -0.033149959668 -0.033894455383 -0.03449751272 -0.034962006478 -0.035291502844 
-0.035489503114 -0.035559664558 -0.035508386873 -0.035339209858 -0.035057085773 -0.034668152525 -0.034178956155 -0.033595306831 -0.032920779686 
-0.032154445604 -0.031288438863 -0.030305752038 -0.029179095255 -0.027873015854 -0.026351688384 -0.024594043824 -0.022615713083 -0.020493457242 
-0.018382648763 -0.016512625403 -0.015140568352 -0.014448384392 -0.014401725733 -0.01471649741 -0.011077288207 -0.011171160749 -0.011382847008 
-0.011744842451 -0.01227103696 -0.012967772797 -0.0138363723 -0.014872601053 -0.016065503864 -0.017397628721 -0.018845832539 -0.020382020016 
-0.021974776586 -0.023590842213 -0.025196671772 -0.026760333454 -0.028253022204 -0.029650312673 -0.030933066893 -0.032087835445 -0.033106439185 
-0.033985216544 -0.034723898079 -0.03532411381 -0.035788530483 -0.036119869008 -0.036320988922 -0.036394937473 -0.03634717083 -0.036178975517 
-0.035896040724 -0.035505703306 -0.035016472356 -0.034437066789 -0.03377460299 -0.03303260692 -0.032208459478 -0.031290199536 -0.030254026027 
-0.029064176854 -0.027678104021 -0.026060091384 -0.024204068374 -0.022162152688 -0.020069674117 -0.018150337402 -0.016679017792 -0.01588016519 
-0.015769119509 -0.016078741695 -0.011874183733 -0.011950889866 -0.012155484769 -0.012516158418 -0.013044569357 -0.013745157363 -0.014618302735 
-0.015659027206 -0.016855895013 -0.018191179917 -0.019641183525 -0.021177434843 -0.022768172829 -0.024379811857 -0.025978847717 -0.027533625847 
-0.029015808748 -0.030401750509 -0.031673382305 -0.032818240681 -0.03382911699 -0.034703169122 -0.035440276281 -0.036041959855 -0.036510082572 
-0.036846423206 -0.037052671041 -0.037130869332 -0.037086162229 -0.036917329199 -0.036630547777 -0.036234309057 -0.035738968853 -0.035155454844 
-0.034494094556 -0.033762766509 -0.032964072957 -0.0320921336 -0.031128946807 -0.030041931078 -0.028786122344 -0.027315141419 -0.025603409238 
-0.023677550549 -0.02164822885 -0.019725383776 -0.018191720318 -0.017306496398 -0.017134835591 -0.01743512876 -0.012635442364 -0.012690962378 
-0.012884595306 -0.013240097566 -0.013765854224 -0.014464310013 -0.01533490448 -0.016372056549 -0.017564337031 -0.018893932278 -0.02033704763 
-0.021865219569 -0.023446623971 -0.025047783981 -0.02663547841 -0.028178383636 -0.029648727705 -0.031023656225 -0.032285779924 -0.033423435765 
-0.034430197383 -0.035303403632 -0.036042981881 -0.036649901508 -0.037125037787 -0.037468914074 -0.037681775337 -0.037764644171 -0.037722590311 
-0.037551919386 -0.037259383066 -0.03685453574 -0.036348886193 -0.035755334226 -0.035086962232 -0.03435515683 -0.03356761345 -0.03272484694 
-0.031815785192 -0.030813803244 -0.029675715646 -0.028349022045 -0.026792226004 -0.025007597292 -0.023078548958 -0.021194592409 -0.019636619943 
-0.01868938261 -0.01846477918 -0.018753332237 -0.013339335571 -0.013385343588 -0.013556641217 -0.013901267989 -0.014420293317 -0.015111177497 