# vtk DataFile Version 4.1
vtk output
ASCII
DATASET STRUCTURED_GRID
DIMENSIONS 51 51 1
POINTS 2601 float
0 0 0 0.02 0 0 0.04 0 0 
0.06 0 0 0.08 0 0 0.1 0 0 
0.12 0 0 0.14 0 0 0.16 0 0 
0.18 0 0 0.2 0 0 0.22 0 0 
0.24 0 0 0.26 0 0 0.28 0 0 
0.3 0 0 0.32 0 0 0.34 0 0 
0.36 0 0 0.38 0 0 0.4 0 0 
0.42 0 0 0.44 0 0 0.46 0 0 
0.48 0 0 0.5 0 0 0.52 0 0 
0.54 0 0 0.56 0 0 0.58 0 0 
0.6 0 0 0.62 0 0 0.64 0 0 
0.66 0 0 0.68 0 0 0.7 0 0 
0.72 0 0 0.74 0 0 0.76 0 0 
0.78 0 0 0.8 0 0 0.82 0 0 
0.84 0 0 0.86 0 0 0.88 0 0 
0.9 0 0 0.92 0 0 0.94 0 0 
0.96 0 0 0.98 0 0 1 0 0 
0 0.02 0 0.02 0.02 0 0.04 0.02 0 
0.06 0.02 0 0.08 0.02 0 0.1 0.02 0 
0.12 0.02 0 0.14 0.02 0 0.16 0.02 0 
0.18 0.02 0 0.2 0.02 0 0.22 0.02 0 
0.24 0.02 0 0.26 0.02 0 0.28 0.02 0 
0.3 0.02 0 0.32 0.02 0 0.34 0.02 0 
0.36 0.02 0 0.38 0.02 0 0.4 0.02 0 
0.42 0.02 0 0.44 0.02 0 0.46 0.02 0 
0.48 0.02 0 0.5 0.02 0 0.52 0.02 0 
0.54 0.02 0 0.56 0.02 0 0.58 0.02 0 
0.6 0.02 0 0.62 0.02 0 0.64 0.02 0 
0.66 0.02 0 0.68 0.02 0 0.7 0.02 0 
0.72 0.02 0 0.74 0.02 0 0.76 0.02 0 
0.78 0.02 0 0.8 0.02 0 0.82 0.02 0 
0.84 0.02 0 0.86 0.02 0 0.88 0.02 0 
0.9 0.02 0 0.92 0.02 0 0.94 0.02 0 
0.96 0.02 0 0.98 0.02 0 1 0.02 0 
0 0.04 0 0.02 0.04 0 0.04 0.04 0 
0.06 0.04 0 0.08 0.04 0 0.1 0.04 0 
0.12 0.04 0 0.14 0.04 0 0.16 0.04 0 
0.18 0.04 0 0.2 0.04 0 0.22 0.04 0 
0.24 0.04 0 0.26 0.04 0 0.28 0.04 0 
0.3 0.04 0 0.32 0.04 0 0.34 0.04 0 
0.36 0.04 0 0.38 0.04 0 0.4 0.04 0 
0.42 0.04 0 0.44 0.04 0 0.46 0.04 0 
0.48 0.04 0 0.5 0.04 0 0.52 0.04 0 
0.54 0.04 0 0.56 0.04 0 0.58 0.04 0 
0.6 0.04 0 0.62 0.04 0 0.64 0.04 0 
0.66 0.04 0 0.68 0.04 0 0.7 0.04 0 
0.72 0.04 0 0.74 0.04 0 0.76 0.04 0 
0.78 0.04 0 0.8 0.04 0 0.82 0.04 0 
0.84 0.04 0 0.86 0.04 0 0.88 0.04 0 
0.9 0.04 0 0.92 0.04 0 0.94 0.04 0 
0.96 0.04 0 0.98 0.04 0 1 0.04 0 
0 0.06 0 0.02 0.06 0 0.04 0.06 0 
0.06 0.06 0 0.08 0.06 0 0.1 0.06 0 
0.12 0.06 0 0.14 0.06 0 0.16 0.06 0 
0.18 0.06 0 0.2 0.06 0 0.22 0.06 0 
0.24 0.06 0 0.26 0.06 0 0.28 0.06 0 
0.3 0.06 0 0.32 0.06 0 0.34 0.06 0 
0.36 0.06 0 0.38 0.06 0 0.4 0.06 0 
0.42 0.06 0 0.44 0.06 0 0.46 0.06 0 
0.48 0.06 0 0.5 0.06 0 0.52 0.06 0 
0.54 0.06 0 0.56 0.06 0 0.58 0.06 0 
0.6 0.06 0 0.62 0.06 0 0.64 0.06 0 
0.66 0.06 0 0.68 0.06 0 0.7 0.06 0 
0.72 0.06 0 0.74 0.06 0 0.76 0.06 0 
0.78 0.06 0 0.8 0.06 0 0.82 0.06 0 
0.84 0.06 0 0.86 0.06 0 0.88 0.06 0 
0.9 0.06 0 0.92 0.06 0 0.94 0.06 0 
0.96 0.06 0 0.98 0.06 0 1 0.06 0 
0 0.08 0 0.02 0.08 0 0.04 0.08 0 
0.06 0.08 0 0.08 0.08 0 0.1 0.08 0 
0.12 0.08 0 0.14 0.08 0 0.16 0.08 0 
0.18 0.08 0 0.2 0.08 0 0.22 0.08 0 
0.24 0.08 0 0.26 0.08 0 0.28 0.08 0 
0.3 0.08 0 0.32 0.08 0 0.34 0.08 0 
0.36 0.08 0 0.38 0.08 0 0.4 0.08 0 
0.42 0.08 0 0.44 0.08 0 0.46 0.08 0 
0.48 0.08 0 0.5 0.08 0 0.52 0.08 0 
0.54 0.08 0 0.56 0.08 0 0.58 0.08 0 
0.6 0.08 0 0.62 0.08 0 0.64 0.08 0 
0.66 0.08 0 0.68 0.08 0 0.7 0.08 0 
0.72 0.08 0 0.74 0.08 0 0.76 0.08 0 
0.78 0.08 0 0.8 0.08 0 0.82 0.08 0 
0.84 0.08 0 0.86 0.08 0 0.88 0.08 0 
0.9 0.08 0 0.92 0.08 0 0.94 0.08 0 
0.96 0.08 0 0.98 0.08 0 1 0.08 0 
0 0.1 0 0.02 0.1 0 0.04 0.1 0 
0.06 0.1 0 0.08 0.1 0 0.1 0.1 0 
0.12 0.1 0 0.14 0.1 0 0.16 0.1 0 
0.18 0.1 0 0.2 0.1 0 0.22 0.1 0 
0.24 0.1 0 0.26 0.1 0 0.28 0.1 0 
0.3 0.1 0 0.32 0.1 0 0.34 0.1 0 
0.36 0.1 0 0.38 0.1 0 0.4 0.1 0 
0.42 0.1 0 0.44 0.1 0 0.46 0.1 0 
0.48 0.1 0 0.5 0.1 0 0.52 0.1 0 
0.54 0.1 0 0.56 0.1 0 0.58 0.1 0 
0.6 0.1 0 0.62 0.1 0 0.64 0.1 0 
0.66 0.1 0 0.68 0.1 0 0.7 0.1 0 
0.72 0.1 0 0.74 0.1 0 0.76 0.1 0 
0.78 0.1 0 0.8 0.1 0 0.82 0.1 0 
0.84 0.1 0 0.86 0.1 0 0.88 0.1 0 
0.9 0.1 0 0.92 0.1 0 0.94 0.1 0 
0.96 0.1 0 0.98 0.1 0 1 0.1 0 
0 0.12 0 0.02 0.12 0 0.04 0.12 0 
0.06 0.12 0 0.08 0.12 0 0.1 0.12 0 
0.12 0.12 0 0.14 0.12 0 0.16 0.12 0 
0.18 0.12 0 0.2 0.12 0 0.22 0.12 0 
0.24 0.12 0 0.26 0.12 0 0.28 0.12 0 
0.3 0.12 0 0.32 0.12 0 0.34 0.12 0 
0.36 0.12 0 0.38 0.12 0 0.4 0.12 0 
0.42 0.12 0 0.44 0.12 0 0.46 0.12 0 
0.48 0.12 0 0.5 0.12 0 0.52 0.12 0 
0.54 0.12 0 0.56 0.12 0 0.58 0.12 0 
0.6 0.12 0 0.62 0.12 0 0.64 0.12 0 
0.66 0.12 0 0.68 0.12 0 0.7 0.12 0 
0.72 0.12 0 0.74 0.12 0 0.76 0.12 0 
0.78 0.12 0 0.8 0.12 0 0.82 0.12 0 
0.84 0.12 0 0.86 0.12 0 0.88 0.12 0 
0.9 0.12 0 0.92 0.12 0 0.94 0.12 0 
0.96 0.12 0 0.98 0.12 0 1 0.12 0 
0 0.14 0 0.02 0.14 0 0.04 0.14 0 
0.06 0.14 0 0.08 0.14 0 0.1 0.14 0 
0.12 0.14 0 0.14 0.14 0 0.16 0.14 0 
0.18 0.14 0 0.2 0.14 0 0.22 0.14 0 
0.24 0.14 0 0.26 0.14 0 0.28 0.14 0 
0.3 0.14 0 0.32 0.14 0 0.34 0.14 0 
0.36 0.14 0 0.38 0.14 0 0.4 0.14 0 
0.42 0.14 0 0.44 0.14 0 0.46 0.14 0 
0.48 0.14 0 0.5 0.14 0 0.52 0.14 0 
0.54 0.14 0 0.56 0.14 0 0.58 0.14 0 
0.6 0.14 0 0.62 0.14 0 0.64 0.14 0 
0.66 0.14 0 0.68 0.14 0 0.7 0.14 0 
0.72 0.14 0 0.74 0.14 0 0.76 0.14 0 
0.78 0.14 0 0.8 0.14 0 0.82 0.14 0 
0.84 0.14 0 0.86 0.14 0 0.88 0.14 0 
0.9 0.14 0 0.92 0.14 0 0.94 0.14 0 
0.96 0.14 0 0.98 0.14 0 1 0.14 0 
0 0.16 0 0.02 0.16 0 0.04 0.16 0 
0.06 0.16 0 0.08 0.16 0 0.1 0.16 0 
0.12 0.16 0 0.14 0.16 0 0.16 0.16 0 
0.18 0.16 0 0.2 0.16 0 0.22 0.16 0 
0.24 0.16 0 0.26 0.16 0 0.28 0.16 0 
0.3 0.16 0 0.32 0.16 0 0.34 0.16 0 
0.36 0.16 0 0.38 0.16 0 0.4 0.16 0 
0.42 0.16 0 0.44 0.16 0 0.46 0.16 0 
0.48 0.16 0 0.5 0.16 0 0.52 0.16 0 
0.54 0.16 0 0.56 0.16 0 0.58 0.16 0 
0.6 0.16 0 0.62 0.16 0 0.64 0.16 0 
0.66 0.16 0 0.68 0.16 0 0.7 0.16 0 
0.72 0.16 0 0.74 0.16 0 0.76 0.16 0 
0.78 0.16 0 0.8 0.16 0 0.82 0.16 0 
0.84 0.16 0 0.86 0.16 0 0.88 0.16 0 
0.9 0.16 0 0.92 0.16 0 0.94 0.16 0 
0.96 0.16 0 0.98 0.16 0 1 0.16 0 
0 0.18 0 0.02 0.18 0 0.04 0.18 0 
0.06 0.18 0 0.08 0.18 0 0.1 0.18 0 
0.12 0.18 0 0.14 0.18 0 0.16 0.18 0 
0.18 0.18 0 0.2 0.18 0 0.22 0.18 0 
0.24 0.18 0 0.26 0.18 0 0.28 0.18 0 
0.3 0.18 0 0.32 0.18 0 0.34 0.18 0 
0.36 0.18 0 0.38 0.18 0 0.4 0.18 0 
0.42 0.18 0 0.44 0.18 0 0.46 0.18 0 
0.48 0.18 0 0.5 0.18 0 0.52 0.18 0 
0.54 0.18 0 0.56 0.18 0 0.58 0.18 0 
0.6 0.18 0 0.62 0.18 0 0.64 0.18 0 
0.66 0.18 0 0.68 0.18 0 0.7 0.18 0 
0.72 0.18 0 0.74 0.18 0 0.76 0.18 0 
0.78 0.18 0 0.8 0.18 0 0.82 0.18 0 
0.84 0.18 0 0.86 0.18 0 0.88 0.18 0 
0.9 0.18 0 0.92 0.18 0 0.94 0.18 0 
0.96 0.18 0 0.98 0.18 0 1 0.18 0 
0 0.2 0 0.02 0.2 0 0.04 0.2 0 
0.06 0.2 0 0.08 0.2 0 0.1 0.2 0 
0.12 0.2 0 0.14 0.2 0 0.16 0.2 0 
0.18 0.2 0 0.2 0.2 0 0.22 0.2 0 
0.24 0.2 0 0.26 0.2 0 0.28 0.2 0 
0.3 0.2 0 0.32 0.2 0 0.34 0.2 0 
0.36 0.2 0 0.38 0.2 0 0.4 0.2 0 
0.42 0.2 0 0.44 0.2 0 0.46 0.2 0 
0.48 0.2 0 0.5 0.2 0 0.52 0.2 0 
0.54 0.2 0 0.56 0.2 0 0.58 0.2 0 
0.6 0.2 0 0.62 0.2 0 0.64 0.2 0 
0.66 0.2 0 0.68 0.2 0 0.7 0.2 0 
0.72 0.2 0 0.74 0.2 0 0.76 0.2 0 
0.78 0.2 0 0.8 0.2 0 0.82 0.2 0 
0.84 0.2 0 0.86 0.2 0 0.88 0.2 0 
0.9 0.2 0 0.92 0.2 0 0.94 0.2 0 
0.96 0.2 0 0.98 0.2 0 1 0.2 0 
0 0.22 0 0.02 0.22 0 0.04 0.22 0 
0.06 0.22 0 0.08 0.22 0 0.1 0.22 0 
0.12 0.22 0 0.14 0.22 0 0.16 0.22 0 
0.18 0.22 0 0.2 0.22 0 0.22 0.22 0 
0.24 0.22 0 0.26 0.22 0 0.28 0.22 0 
0.3 0.22 0 0.32 0.22 0 0.34 0.22 0 
0.36 0.22 0 0.38 0.22 0 0.4 0.22 0 
0.42 0.22 0 0.44 0.22 0 0.46 0.22 0 
0.48 0.22 0 0.5 0.22 0 0.52 0.22 0 
0.54 0.22 0 0.56 0.22 0 0.58 0.22 0 
0.6 0.22 0 0.62 0.22 0 0.64 0.22 0 
0.66 0.22 0 0.68 0.22 0 0.7 0.22 0 
0.72 0.22 0 0.74 0.22 0 0.76 0.22 0 
0.78 0.22 0 0.8 0.22 0 0.82 0.22 0 
0.84 0.22 0 0.86 0.22 0 0.88 0.22 0 
0.9 0.22 0 0.92 0.22 0 0.94 0.22 0 
0.96 0.22 0 0.98 0.22 0 1 0.22 0 
0 0.24 0 0.02 0.24 0 0.04 0.24 0 
0.06 0.24 0 0.08 0.24 0 0.1 0.24 0 
0.12 0.24 0 0.14 0.24 0 0.16 0.24 0 
0.18 0.24 0 0.2 0.24 0 0.22 0.24 0 
0.24 0.24 0 0.26 0.24 0 0.28 0.24 0 
0.3 0.24 0 0.32 0.24 0 0.34 0.24 0 
0.36 0.24 0 0.38 0.24 0 0.4 0.24 0 
0.42 0.24 0 0.44 0.24 0 0.46 0.24 0 
0.48 0.24 0 0.5 0.24 0 0.52 0.24 0 
0.54 0.24 0 0.56 0.24 0 0.58 0.24 0 
0.6 0.24 0 0.62 0.24 0 0.64 0.24 0 
0.66 0.24 0 0.68 0.24 0 0.7 0.24 0 
0.72 0.24 0 0.74 0.24 0 0.76 0.24 0 
0.78 0.24 0 0.8 0.24 0 0.82 0.24 0 
0.84 0.24 0 0.86 0.24 0 0.88 0.24 0 
0.9 0.24 0 0.92 0.24 0 0.94 0.24 0 
0.96 0.24 0 0.98 0.24 0 1 0.24 0 
0 0.26 0 0.02 0.26 0 0.04 0.26 0 
0.06 0.26 0 0.08 0.26 0 0.1 0.26 0 
0.12 0.26 0 0.14 0.26 0 0.16 0.26 0 
0.18 0.26 0 0.2 0.26 0 0.22 0.26 0 
0.24 0.26 0 0.26 0.26 0 0.28 0.26 0 
0.3 0.26 0 0.32 0.26 0 0.34 0.26 0 
0.36 0.26 0 0.38 0.26 0 0.4 0.26 0 
0.42 0.26 0 0.44 0.26 0 0.46 0.26 0 
0.48 0.26 0 0.5 0.26 0 0.52 0.26 0 
0.54 0.26 0 0.56 0.26 0 0.58 0.26 0 
0.6 0.26 0 0.62 0.26 0 0.64 0.26 0 
0.66 0.26 0 0.68 0.26 0 0.7 0.26 0 
0.72 0.26 0 0.74 0.26 0 0.76 0.26 0 
0.78 0.26 0 0.8 0.26 0 0.82 0.26 0 
0.84 0.26 0 0.86 0.26 0 0.88 0.26 0 
0.9 0.26 0 0.92 0.26 0 0.94 0.26 0 
0.96 0.26 0 0.98 0.26 0 1 0.26 0 
0 0.28 0 0.02 0.28 0 0.04 0.28 0 
0.06 0.28 0 0.08 0.28 0 0.1 0.28 0 
0.12 0.28 0 0.14 0.28 0 0.16 0.28 0 
0.18 0.28 0 0.2 0.28 0 0.22 0.28 0 
0.24 0.28 0 0.26 0.28 0 0.28 0.28 0 
0.3 0.28 0 0.32 0.28 0 0.34 0.28 0 
0.36 0.28 0 0.38 0.28 0 0.4 0.28 0 
0.42 0.28 0 0.44 0.28 0 0.46 0.28 0 
0.48 0.28 0 0.5 0.28 0 0.52 0.28 0 
0.54 0.28 0 0.56 0.28 0 0.58 0.28 0 
0.6 0.28 0 0.62 0.28 0 0.64 0.28 0 
0.66 0.28 0 0.68 0.28 0 0.7 0.28 0 
0.72 0.28 0 0.74 0.28 0 0.76 0.28 0 
0.78 0.28 0 0.8 0.28 0 0.82 0.28 0 
0.84 0.28 0 0.86 0.28 0 0.88 0.28 0 
0.9 0.28 0 0.92 0.28 0 0.94 0.28 0 
0.96 0.28 0 0.98 0.28 0 1 0.28 0 
0 0.3 0 0.02 0.3 0 0.04 0.3 0 
0.06 0.3 0 0.08 0.3 0 0.1 0.3 0 
0.12 0.3 0 0.14 0.3 0 0.16 0.3 0 
0.18 0.3 0 0.2 0.3 0 0.22 0.3 0 
0.24 0.3 0 0.26 0.3 0 0.28 0.3 0 
0.3 0.3 0 0.32 0.3 0 0.34 0.3 0 
0.36 0.3 0 0.38 0.3 0 0.4 0.3 0 
0.42 0.3 0 0.44 0.3 0 0.46 0.3 0 
0.48 0.3 0 0.5 0.3 0 0.52 0.3 0 
0.54 0.3 0 0.56 0.3 0 0.58 0.3 0 
0.6 0.3 0 0.62 0.3 0 0.64 0.3 0 
0.66 0.3 0 0.68 0.3 0 0.7 0.3 0 
0.72 0.3 0 0.74 0.3 0 0.76 0.3 0 
0.78 0.3 0 0.8 0.3 0 0.82 0.3 0 
0.84 0.3 0 0.86 0.3 0 0.88 0.3 0 
0.9 0.3 0 0.92 0.3 0 0.94 0.3 0 
0.96 0.3 0 0.98 0.3 0 1 0.3 0 
0 0.32 0 0.02 0.32 0 0.04 0.32 0 
0.06 0.32 0 0.08 0.32 0 0.1 0.32 0 
0.12 0.32 0 0.14 0.32 0 0.16 0.32 0 
0.18 0.32 0 0.2 0.32 0 0.22 0.32 0 
0.24 0.32 0 0.26 0.32 0 0.28 0.32 0 
0.3 0.32 0 0.32 0.32 0 0.34 0.32 0 
0.36 0.32 0 0.38 0.32 0 0.4 0.32 0 
0.42 0.32 0 0.44 0.32 0 0.46 0.32 0 
0.48 0.32 0 0.5 0.32 0 0.52 0.32 0 
0.54 0.32 0 0.56 0.32 0 0.58 0.32 0 
[...]
CELL_DATA 2500
FIELD FieldData 2
pressure 1 2500 double
-0.0057940945893 -0.0057792900407 -0.0057966670649 -0.0058534603855 -0.0059449078275 -0.0060624028338 -0.0061988439818 -0.0063505166571 -0.0065181137762 
-0.0067042112369 -0.0069137653046 -0.0071490125182 -0.0074098845269 -0.0076954815624 -0.008000435325 -0.0083178345041 -0.0086383762553 -0.0089505241632 
-0.0092405378989 -0.0094926414157 -0.0096894518363 -0.009812587738 -0.0098434733303 -0.0097643607713 -0.0095594327668 -0.0092159453291 -0.0087254390979 
-0.0080850113099 -0.0072987211752 -0.0063792138081 -0.0053511615226 -0.0042712856608 -0.0031801330814 -0.0021298184854 -0.0011793348641 -0.00038975685025 
0.00018230726469 0.00049305896833 0.00052089769899 0.00027534500119 -0.00017333924255 -0.00074794984998 -0.0013574318749 -0.0019136988209 -0.0023566474314 
-0.0026718779061 -0.0028691511201 -0.0029664967614 -0.0029833371767 -0.0029457292514 -0.0057972967817 -0.0057843098264 -0.0058075188411 -0.0058662458719 
-0.0059538099495 -0.0060619482548 -0.0061854831481 -0.006322754161 -0.0064770807854 -0.0066497232123 -0.0068477986654 -0.0070718941977 -0.0073216718219 
-0.007595763724 -0.0078903374143 -0.0081995397573 -0.0085152838664 -0.0088269357708 -0.0091212185117 -0.0093824301466 -0.0095928794332 -0.0097336237688 
-0.0097854553565 -0.0097299731998 -0.0095507023799 -0.0092342584546 -0.0087714566749 -0.0081583465969 -0.0073971204077 -0.0064973543372 -0.0055185349181 
-0.0044741250298 -0.0034128874771 -0.0023885108598 -0.0014597181633 -0.00068662426882 -0.00012454067217 0.00018428568563 0.00022028313727 -3.869966188e-06 
-0.00043664966449 -0.00095914870683 -0.0015145471205 -0.0020165652891 -0.0024076542069 -0.0026793000045 -0.0028463215725 -0.0029299805704 -0.0029483013009 
-0.0029097191252 -0.005770885595 -0.0057624749785 -0.0057930130533 -0.0058557951678 -0.005941298587 -0.0060408980745 -0.0061535199312 -0.0062761743892 
-0.0064186879774 -0.0065819803631 -0.006771312759 -0.0069888107532 -0.0072351600105 -0.0075096925163 -0.0078097829809 -0.0081305425021 -0.0084642774815 
-0.0088001541682 -0.0091242467588 -0.0094197976592 -0.009667857176 -0.0098482253161 -0.0099405102568 -0.0099252476418 -0.009785066877 -0.0095057849085 
-0.009077364649 -0.0084945725092 -0.007756326445 -0.0069071343964 -0.0059551215846 -0.0049321085254 -0.0038846258702 -0.0028661258918 -0.0019351129477 
-0.0011514374389 -0.00057037589295 -0.00023462019329 -0.00016475239783 -0.00034957890828 -0.00073903602214 -0.001244307226 -0.0017624197176 -0.0022333815966 
-0.0025869888712 -0.0028103066502 -0.0029363804666 -0.0029913851828 -0.0029948308783 -0.00294725191 -0.0057089763639 -0.0057110735497 -0.0057512425686 
-0.0058192601633 -0.0059041840674 -0.0059981012725 -0.0061023441668 -0.0062183878438 -0.0063543472839 -0.0065153796908 -0.0067064618584 -0.0069312522203 
-0.0071918810718 -0.0074886460539 -0.0078195409264 -0.0081795044477 -0.0085599020486 -0.0089484369402 -0.0093293026259 -0.0096837545303 -0.0099910339443 
-0.010229398534 -0.010377256661 -0.010414333986 -0.010322780302 -0.010088191707 -0.0097006336058 -0.0091557982483 -0.0084575465839 -0.007644579256 
-0.0067161884171 -0.0057085799402 -0.0046662690266 -0.0036411487572 -0.0026904522835 -0.0018731518141 -0.0012444103122 -0.00084805256041 -0.00070755096185 
-0.0008169024129 -0.0011342008014 -0.0015826155155 -0.0020643670283 -0.0025006065021 -0.002836000177 -0.0030266993075 -0.0031169958566 -0.0031427730044 
-0.0031293945324 -0.0030801630553 -0.0056091327578 -0.00562634635 -0.0056781425844 -0.0057519524561 -0.0058380808534 -0.0059326104999 -0.0060364202142 
-0.0061554765148 -0.0062980938921 -0.0064718124854 -0.0066832832181 -0.0069377057461 -0.0072382000635 -0.0075853552039 -0.0079764098199 -0.0084046347613 
-0.0088591778676 -0.0093251504898 -0.0097841856655 -0.010215362126 -0.010596201302 -0.010903790978 -0.011115951743 -0.011212301381 -0.011175247195 
-0.010990943776 -0.010650126347 -0.010148549837 -0.0095057918756 -0.0087219678977 -0.0078170707549 -0.0068230602943 -0.0057811666917 -0.004740356577 
-0.003755283921 -0.0028830038659 -0.0021780102293 -0.0016854631406 -0.0014330061826 -0.0014224115608 -0.001623529711 -0.0019742688638 -0.0023902368944 
-0.0027841421827 -0.0030802885481 -0.0032703345043 -0.0033431896915 -0.0033541188244 -0.0033336621848 -0.0032920760912 -0.0054705545208 -0.0055062562401 
-0.0055697504315 -0.0056515151881 -0.0057455637602 -0.0058479901556 -0.0059635299085 -0.0061004158512 -0.0062682269143 -0.0064764195353 -0.0067331915567 
-0.0070445106862 -0.0074135228295 -0.0078396587286 -0.0083179692555 -0.0088389868787 -0.0093887934418 -0.0099495900748 -0.010500628368 -0.011019189794 
-0.011481690424 -0.011864830916 -0.012146586753 -0.012307146794 -0.012329849815 -0.01220206994 -0.011916083356 -0.011470093075 -0.010876282788 
-0.010130082144 -0.0092527653972 -0.0082736838961 -0.0072303801191 -0.0061678098243 -0.0051367987515 -0.0041913834277 -0.0033846634525 -0.0027630150195 
-0.002358951194 -0.0021836158848 -0.0022208362222 -0.0024254518027 -0.0027284447527 -0.003049457869 -0.0033152131057 -0.0034867766706 -0.0035715702925 
-0.0035921677625 -0.0035805146861 -0.0035542997453 -0.0052970475586 -0.0053538226412 -0.005431727796 -0.0055255237872 -0.0056326990285 -0.0057545577949 
-0.0058976154467 -0.0060714506477 -0.0062870537036 -0.0065550587232 -0.0068840729556 -0.007279780571 -0.007743880307 -0.0082732968803 -0.0088600634782 
-0.0094914025179 -0.010150308001 -0.010816496848 -0.011467373771 -0.012079149999 -0.012627949788 -0.01309071691 -0.01344609165 -0.013675285382 
-0.013762861571 -0.013697553057 -0.013473209517 -0.013089908071 -0.012548200378 -0.011845434207 -0.011000690966 -0.010039932969 -0.008996253288 
-0.0079096155546 -0.0068259203308 -0.0057951042 -0.0048679730239 -0.0040915844851 -0.0035033123048 -0.0031242818313 -0.0029535451094 -0.0029649579687 
-0.0031087925208 -0.0033195745997 -0.0035311308665 -0.0036984286618 -0.0038000771928 -0.0038391132124 -0.0038512070677 -0.0038455526995 -0.0051020263205 
-0.0051834146085 -0.0052754209189 -0.0053856988367 -0.0055163274716 -0.0056717798909 -0.0058599780697 -0.0060916425361 -0.0063784913247 -0.0067310396815 
-0.0071572160213 -0.0076609770955 -0.0082412631416 -0.0088918292323 -0.0096012933536 -0.010353696626 -0.011129484674 -0.011906471253 -0.012660968581 
-0.013368867191 -0.014006470034 -0.01455134422 -0.014983117798 -0.015284143161 -0.015440215002 -0.015441394558 -0.015282858913 -0.01496587118 
-0.014480239005 -0.01382593158 -0.013019127934 -0.012081747984 -0.011041796329 -0.0099334636756 -0.0087967712566 -0.0076765001926 -0.006620086694 
-0.0056742568616 -0.0048804303399 -0.0042692849755 -0.0038553440676 -0.0036328917973 -0.0035747548009 -0.003635428192 -0.0037596355893 -0.0038956711614 
-0.00400734151 -0.0040947372859 -0.0041420793819 -0.0041596101441 -0.0049095187139 -0.0050134461846 -0.0051238853786 -0.0052577200062 -0.0054228423059 
-0.0056261080776 -0.0058766911506 -0.0061858444553 -0.0065647588345 -0.0070228509759 -0.0075660211522 -0.0081951984927 -0.0089060048325 -0.0096886909044 
-0.010528591363 -0.01140711613 -0.01230271737 -0.013192008612 -0.014050837708 -0.014855095949 -0.015581581347 -0.016208722958 -0.01671716476 
-0.017090430206 -0.017315615529 -0.017384025026 -0.01729183896 -0.017040900557 -0.016613920871 -0.016012024899 -0.015248460509 -0.014340886451 
-0.013311853725 -0.012189245464 -0.011006481241 -0.0098022014559 -0.0086191834987 -0.0075023032273 -0.0064954345543 -0.0056373843098 -0.0049572731458 
-0.0044700591368 -0.0041731595102 -0.0040452393019 -0.0040483467908 -0.0041346868439 -0.0042590997106 -0.0043813828173 -0.0044629228229 -0.0045041607943 
-0.0047519721258 -0.0048785708499 -0.0050100035032 -0.0051740730557 -0.0053833967455 -0.00564688102 -0.0059744971412 -0.0063768809585 -0.0068638755416 
-0.0074426513395 -0.0081158157137 -0.0088807857874 -0.0097295391457 -0.010648870399 -0.011621337282 -0.012626197503 -0.013640490681 -0.014640121507 
-0.015600684553 -0.01649835456 -0.017310574529 -0.018016623082 -0.01859828605 -0.019040446586 -0.019331568164 -0.019464151881 -0.019435234903 
-0.019246830584 -0.018878329395 -0.018331086771 -0.0176155185 -0.01674504055 -0.015736718528 -0.014611959229 -0.013397072304 -0.012123599588 
-0.010828251862 -0.0095522158879 -0.0083396229123 -0.0072350791728 -0.0062802529785 -0.005509650166 -0.0049458544465 -0.0045946459206 -0.0044407752728 
-0.0044460818836 -0.0045534171275 -0.0046974135774 -0.004825538714 -0.0048935877156 -0.0046674285625 -0.0048143542852 -0.0049686375872 -0.005167869787 
-0.0054286884666 -0.0057616780573 -0.006176569899 -0.0066827275722 -0.0072877668713 -0.0079954216038 -0.0088045997004 -0.0097089089062 -0.010696630468 
-0.01175155458 -0.012853841111 -0.013981015699 -0.015109082247 -0.016213370497 -0.017269450219 -0.018253832808 -0.019144597226 -0.01992210345 
-0.020569533415 -0.021073300487 -0.021423376834 -0.021613548381 -0.021641544143 -0.021509198728 -0.021196236151 -0.020703923126 -0.020040037499 
-0.019214101256 -0.018238016459 -0.017126763895 -0.015899240225 -0.014579161241 -0.013195872789 -0.011784911613 -0.010388086164 -0.009052769735 
-0.0078300566812 -0.006771424016 -0.0059234761364 -0.0053203800193 -0.0049740220076 -0.0048635226343 -0.0049300461588 -0.0050877298359 -0.0052540518224 
-0.0053481102503 -0.0046891404214 -0.0048528439765 -0.0050304579011 -0.0052676554722 -0.0055844724359 -0.0059921586746 -0.0064996729046 -0.007114522789 
-0.0078410119227 -0.0086791199697 -0.0096238507284 -0.010664874285 -0.011787189156 -0.012971879109 -0.014196971999 -0.015438568018 -0.016671706443 
-0.017871283895 -0.019012823673 -0.020073201013 -0.021031424918 -0.021869191022 -0.022571317672 -0.023126011568 -0.023524960418 -0.023763212343 
-0.02383907171 -0.023754160862 -0.023491453173 -0.023052343489 -0.022442424172 -0.021667863976 -0.020735840757 -0.019655256114 -0.018437703357 
-0.017098697404 -0.01565920748 -0.014147357411 -0.0125999986 -0.011063785387 -0.0095952080945 -0.0082587842647 -0.0071223051448 -0.0062478531275 
-0.0056776496607 -0.0054157733667 -0.0054124772373 -0.0055676821409 -0.0057627166809 -0.0058836137137 -0.0048419899797 -0.0050179693221 -0.005217990868 
-0.0054940327719 -0.0058681694409 -0.0063517286236 -0.0069525445645 -0.0076753115222 -0.0085207929652 -0.0094851591207 -0.010559344289 -0.011729490393 
-0.012977589905 -0.01428217396 -0.015619417752 -0.016964020444 -0.01829010122 -0.019572078357 -0.020785494754 -0.021907882903 -0.022919404417 
-0.023803393492 -0.024546623589 -0.025139312457 -0.025574883505 -0.025849671559 -0.025962726601 -0.025915523659 -0.025696197523 -0.025306962479 
-0.024751646511 -0.024033596974 -0.023155997641 -0.022122388789 -0.020937553727 -0.019608975356 -0.018148845357 -0.016576549454 -0.014921505258 
-0.013226001512 -0.011547328361 -0.0099580638346 -0.0085428215033 -0.0073892575831 -0.006571208077 -0.006123715998 -0.0060158584294 -0.0061406804157 
-0.0063466356539 -0.0065092024322 -0.0051399800828 -0.0053232101735 -0.005543816135 -0.0058575788877 -0.0062875338002 -0.006844739609 -0.0075350517981 
-0.0083601788053 -0.0093174477257 -0.010399062297 -0.011592328296 -0.012880185186 -0.014241714013 -0.015653177627 -0.017088915987 -0.018522191768 
-0.019926190623 -0.021274938221 -0.022544248808 -0.023712522929 -0.024761445819 -0.025676294352 -0.026445948971 -0.02706265342 -0.027521643336 
-0.02782076063 -0.027959937651 -0.027940772668 -0.027757500264 -0.027413595633 -0.026911477642 -0.02625241493 -0.025436494316 -0.024462896345 
-0.023330696236 -0.022040207848 -0.020595048916 -0.019005110006 -0.017290390754 -0.015485407538 -0.013643492391 -0.011839646163 -0.010169726913 
-0.0087428845208 -0.007663811977 -0.0070029006187 -0.0067586316424 -0.0068323678094 -0.0070544818354 -0.0072474192122 -0.0055855740557 -0.0057712836348 
-0.0060098881225 -0.0063586546095 -0.0068408189581 -0.0074663029546 -0.0082387706156 -0.0091571472538 -0.01021521487 -0.011401697113 -0.012700688858 
-0.014092014332 -0.015552158442 -0.017055186119 -0.018573519015 -0.020079038035 -0.021544089348 -0.022942511359 -0.024250637148 -0.025448163505 
-0.0265185278 -0.027449029786 -0.028230682971 -0.028857815535 -0.029327622985 -0.029639548085 -0.02979468572 -0.029795139807 -0.029640938045 
-0.029336854551 -0.028884390789 -0.02828343894 -0.027532050809 -0.026626529113 -0.025561790712 -0.024332315812 -0.022934041095 -0.021367400621 
-0.019641717852 -0.017780915955 -0.01582994201 -0.01386045245 -0.011973196338 -0.010293245125 -0.0089533004261 -0.0080611552068 -0.0076530254622 
-0.0076508514752 -0.0078711300172 -0.0080982662276 -0.006170890248 -0.0063548703079 -0.0066084130159 -0.0069884662556 -0.0075173500339 -0.0082034277829 
-0.0090483415097 -0.010048182558 -0.011193697817 -0.012470633672 -0.013860003026 -0.015338881043 -0.016881328514 -0.018459117145 -0.020042885995 
-0.021603253264 -0.023111901219 -0.024542805347 -0.025873271847 -0.027084424853 -0.028161523481 -0.029093955562 -0.029874848422 -0.030500664081 
-0.03097060084 -0.031285866184 -0.031448882938 -0.031462338298 -0.031331020343 -0.031060648227 -0.030652197955 -0.03010499433 -0.029416368626 
-0.028581283018 -0.027592224618 -0.026439672889 -0.025113409375 -0.02360521336 -0.02191344258 -0.020049633865 -0.018046728163 -0.015967612295 
-0.013911249426 -0.012011902992 -0.01042538029 -0.0092961269589 -0.0087035044179 -0.0086015189549 -0.008803737615 -0.0090622969066 -0.0068796867489 
-0.0070583624037 -0.007323637049 -0.007730392092 -0.0082991952299 -0.0090368083514 -0.0099428155668 -0.011010947268 -0.012229446812 -0.013581287345 
-0.01504482335 -0.016594657227 -0.018202360346 -0.019837623627 -0.021469486651 -0.023067466846 -0.024602996811 -0.026050645353 -0.027388750523 
-0.028599987857 -0.02967153076 -0.030594727789 -0.031364844016 -0.031980522074 -0.032442961997 -0.032755045694 -0.03292035037 -0.032942126693 
-0.032828496597 -0.032585381438 -0.032213744578 -0.031713234596 -0.031081531307 -0.030313687975 -0.029401596 -0.028333699691 -0.027095577933 
-0.0256720471 -0.024051373462 -0.022232139272 -0.020232798667 -0.018102872392 -0.015933068653 -0.013859425575 -0.012054208176 -0.010695050292 
-0.0099068178334 -0.0096852659849 -0.0098536927842 -0.010136771382 -0.007689615481 -0.0078600713621 -0.0081337406592 -0.0085619958454 -0.0091632359967 
-0.0099425076447 -0.010897675728 -0.012020581173 -0.013297242257 -0.014708325575 -0.016229860453 -0.01783399166 -0.019490077854 -0.021166001356 
-0.022829365839 -0.024449080366 -0.025996792043 -0.027447692085 -0.02878134365 -0.029982062528 -0.031038718443 -0.031944717803 -0.032697540113 
-0.033297850911 -0.033748605631 -0.03405401422 -0.034218437463 -0.034245585553 -0.034145334087 -0.033923177558 -0.033580610652 -0.033118144823 
-0.032534633564 -0.03182642584 -0.030986279428 -0.030002525936 -0.028858913027 -0.027535684516 -0.026012901087 -0.024276966527 -0.022330818815 
-0.020207248951 -0.01798295436 -0.015788219664 -0.013803920863 -0.012235084201 -0.011251395797 -0.010897561225 -0.011020173475 -0.01132587588 
-0.0085745198838 -0.0087343968307 -0.0090129315909 -0.0094571631733 -0.0100830732 -0.010894093516 -0.011886681687 -0.013051091846 -0.014371585164 
-0.015826842231 -0.017390698481 -0.019033166314 -0.020721732067 -0.022422668495 -0.024102688669 -0.025730592088 -0.027278273259 -0.028721778488 
-0.030041979215 -0.03122456051 -0.032260299874 -0.033144749667 -0.033877336549 -0.034460483873 -0.034898489387 -0.035196262607 -0.035358580521 
-0.035389444345 -0.035299146638 -0.035092437405 -0.03477153054 -0.034338111351 -0.033792710916 -0.033133585932 -0.032355500486 -0.031448477925 
-0.030396744629 -0.029178703738 -0.027768993209 -0.026143888966 -0.024291276799 -0.02222539144 -0.020004407829 -0.017745853327 -0.015630806174 
-0.01388402878 -0.012716304418 -0.012224947342 -0.012291117917 -0.012610748463 -0.0095066174397 -0.0096538048222 -0.0099334550669 -0.01038806023 
-0.011031074152 -0.011864395644 -0.012883298178 -0.014076839747 -0.01542777298 -0.0169130246 -0.018504595462 -0.020170714731 -0.021877284613 
-0.023589535632 -0.025273838119 -0.026898949696 -0.028437245407 -0.029865733845 -0.031166292845 -0.032326272124 -0.033338445447 -0.034200190582 
-0.034912688584 -0.035479699122 -0.035906080298 -0.036197011186 -0.036357357876 -0.036391181738 -0.036308410652 -0.03611272246 -0.035807072683 
-0.035394395332 -0.034876874794 -0.034255018217 -0.033526383561 -0.032683918524 -0.031714344506 -0.030597025931 -0.029304352196 -0.027805455782 
-0.026075137827 -0.024109014396 -0.021943854904 -0.019678513087 -0.017485970468 -0.015601822824 -0.014271502366 -0.013644931397 -0.013646883556 
-0.013972354834 -0.010458256562 -0.010590547181 -0.010867421983 -0.011326932748 -0.011979960137 -0.012826912958 -0.013862081629 -0.015073463109 
-0.016442552888 -0.01794490071 -0.019550969657 -0.021227615132 -0.022939720807 -0.024652050738 -0.026330784447 -0.027944844649 -0.029467245906 
-0.030875641865 -0.032153231798 -0.033289143559 -0.034277799887 -0.035118306597 -0.035813182089 -0.03636666378 -0.03678382149 -0.037069764093 
-0.037229022597 -0.037265728043 -0.037188909113 -0.03700095008 -0.036705463474 -0.036306340264 -0.035807349434 -0.035211313689 -0.03451879048 
-0.033726444063 -0.0328249799 -0.031796962193 -0.030615666051 -0.02924672707 -0.027655054952 -0.025819268451 -0.023753733323 -0.021534325899 
-0.019318429709 -0.017343060238 -0.015879745125 -0.015127645821 -0.015061314868 -0.015385347305 -0.011403439954 -0.011518052226 -0.011788148981 
-0.012247399261 -0.012904060427 -0.013756977504 -0.014799436446 -0.01601851659 -0.017394807557 -0.018902702906 -0.020511620798 -0.022187613031 
-0.02389509502 -0.025598663328 -0.027264480516 -0.028861840096 -0.030364106014 -0.031749843227 -0.033003752344 -0.034116362919 -0.0350837227 
-0.035906251801 -0.036586923946 -0.037130246961 -0.037541198261 -0.03782431551 -0.037983840965 -0.038023676357 -0.037951831067 -0.037769281728 
-0.037479973824 -0.037088604526 -0.036600338446 -0.036020061517 -0.035351330222 -0.034594732032 -0.033745593356 -0.032791284595 -0.031708696177 
-0.03046360793 -0.029015021967 -0.027327722024 -0.025394614745 -0.023266224035 -0.021078223551 -0.019059910787 -0.017499053564 -0.016637783377 
-0.016503265232 -0.016819872035 -0.012319772382 -0.012411065446 -0.012670976071 -0.013125437304 -0.013780206508 -0.014632386793 -0.015674215148 
-0.016892077438 -0.0182658188 -0.01976915169 -0.021371051585 -0.023037240099 -0.024732139493 -0.026420344228 -0.028068207616 -0.029645211313 
-0.031125235051 -0.03248802461 -0.033719394028 -0.03481127176 -0.035760933488 -0.036569234232 -0.037239505626 -0.037776248167 -0.038183838335 
-0.038466433727 -0.03862767764 -0.038670843438 -0.038603329351 -0.03842441722 -0.038138264262 -0.037750213161 -0.037266572908 -0.036694067039 
-0.03603887803 -0.035305184926 -0.034493053811 -0.033595443561 -0.032594697805 -0.031460024615 -0.030148817364 -0.028616217019 -0.026836350258 
-0.024834095974 -0.022719167664 -0.020705010394 -0.019085318704 -0.018136679758 -0.01793831531 -0.018243193947 -0.01318383583 -0.013252638064 
-0.013494248027 -0.013940098594 -0.014588331908 -0.015433936625 -0.016468230576 -0.017676957621 -0.0190395808 -0.02052976504 -0.022116440296 
-0.023765596863 -0.025441884922 -0.027110049742 -0.028736645154 -0.030291397737 -0.03174903173 -0.033090156517 -0.034301645964 -0.035376482218 
-0.036312291657 -0.037110280066 -0.037773882498 -0.038307112962 -0.038714077721 -0.038998247115 -0.039162294011 -0.039208847131 -0.039145029247 
-0.038968314103 -0.038683020217 -0.038295043714 -0.037811659478 -0.037241044762 -0.036591496534 -0.035870255958 -0.035081682365 -0.034224335069 
-0.033287072372 -0.032244985104 -0.031057790225 -0.029675734542 -0.028058201905 -0.026206071991 -0.024200948049 -0.02223390165 -0.020594636154 
-0.019584239408 -0.019330292735 -0.019620996551 -0.013972772427 -0.014029943543 -0.014246509079 -0.014673899419 -0.015312013062 -0.016145807507 