# vtk DataFile Version 4.1
vtk output
ASCII
DATASET STRUCTURED_GRID
DIMENSIONS 51 51 1
POINTS 2601 float
0 0 0 0.02 0 0 0.04 0 0 
0.06 0 0 0.08 0 0 0.1 0 0 
0.12 0 0 0.14 0 0 0.16 0 0 
0.18 0 0 0.2 0 0 0.22 0 0 
0.24 0 0 0.26 0 0 0.28 0 0 
0.3 0 0 0.32 0 0 0.34 0 0 
0.36 0 0 0.38 0 0 0.4 0 0 
0.42 0 0 0.44 0 0 0.46 0 0 
0.48 0 0 0.5 0 0 0.52 0 0 
0.54 0 0 0.56 0 0 0.58 0 0 
0.6 0 0 0.62 0 0 0.64 0 0 
0.66 0 0 0.68 0 0 0.7 0 0 
0.72 0 0 0.74 0 0 0.76 0 0 
0.78 0 0 0.8 0 0 0.82 0 0 
0.84 0 0 0.86 0 0 0.88 0 0 
0.9 0 0 0.92 0 0 0.94 0 0 
0.96 0 0 0.98 0 0 1 0 0 
0 0.02 0 0.02 0.02 0 0.04 0.02 0 
0.06 0.02 0 0.08 0.02 0 0.1 0.02 0 
0.12 0.02 0 0.14 0.02 0 0.16 0.02 0 
0.18 0.02 0 0.2 0.02 0 0.22 0.02 0 
0.24 0.02 0 0.26 0.02 0 0.28 0.02 0 
0.3 0.02 0 0.32 0.02 0 0.34 0.02 0 
0.36 0.02 0 0.38 0.02 0 0.4 0.02 0 
0.42 0.02 0 0.44 0.02 0 0.46 0.02 0 
0.48 0.02 0 0.5 0.02 0 0.52 0.02 0 
0.54 0.02 0 0.56 0.02 0 0.58 0.02 0 
0.6 0.02 0 0.62 0.02 0 0.64 0.02 0 
0.66 0.02 0 0.68 0.02 0 0.7 0.02 0 
0.72 0.02 0 0.74 0.02 0 0.76 0.02 0 
0.78 0.02 0 0.8 0.02 0 0.82 0.02 0 
0.84 0.02 0 0.86 0.02 0 0.88 0.02 0 
0.9 0.02 0 0.92 0.02 0 0.94 0.02 0 
0.96 0.02 0 0.98 0.02 0 1 0.02 0 
0 0.04 0 0.02 0.04 0 0.04 0.04 0 
0.06 0.04 0 0.08 0.04 0 0.1 0.04 0 
0.12 0.04 0 0.14 0.04 0 0.16 0.04 0 
0.18 0.04 0 0.2 0.04 0 0.22 0.04 0 
0.24 0.04 0 0.26 0.04 0 0.28 0.04 0 
0.3 0.04 0 0.32 0.04 0 0.34 0.04 0 
0.36 0.04 0 0.38 0.04 0 0.4 0.04 0 
0.42 0.04 0 0.44 0.04 0 0.46 0.04 0 
0.48 0.04 0 0.5 0.04 0 0.52 0.04 0 
0.54 0.04 0 0.56 0.04 0 0.58 0.04 0 
0.6 0.04 0 0.62 0.04 0 0.64 0.04 0 
0.66 0.04 0 0.68 0.04 0 0.7 0.04 0 
0.72 0.04 0 0.74 0.04 0 0.76 0.04 0 
0.78 0.04 0 0.8 0.04 0 0.82 0.04 0 
0.84 0.04 0 0.86 0.04 0 0.88 0.04 0 
0.9 0.04 0 0.92 0.04 0 0.94 0.04 0 
0.96 0.04 0 0.98 0.04 0 1 0.04 0 
0 0.06 0 0.02 0.06 0 0.04 0.06 0 
0.06 0.06 0 0.08 0.06 0 0.1 0.06 0 
0.12 0.06 0 0.14 0.06 0 0.16 0.06 0 
0.18 0.06 0 0.2 0.06 0 0.22 0.06 0 
0.24 0.06 0 0.26 0.06 0 0.28 0.06 0 
0.3 0.06 0 0.32 0.06 0 0.34 0.06 0 
0.36 0.06 0 0.38 0.06 0 0.4 0.06 0 
0.42 0.06 0 0.44 0.06 0 0.46 0.06 0 
0.48 0.06 0 0.5 0.06 0 0.52 0.06 0 
0.54 0.06 0 0.56 0.06 0 0.58 0.06 0 
0.6 0.06 0 0.62 0.06 0 0.64 0.06 0 
0.66 0.06 0 0.68 0.06 0 0.7 0.06 0 
0.72 0.06 0 0.74 0.06 0 0.76 0.06 0 
0.78 0.06 0 0.8 0.06 0 0.82 0.06 0 
0.84 0.06 0 0.86 0.06 0 0.88 0.06 0 
0.9 0.06 0 0.92 0.06 0 0.94 0.06 0 
0.96 0.06 0 0.98 0.06 0 1 0.06 0 
0 0.08 0 0.02 0.08 0 0.04 0.08 0 
0.06 0.08 0 0.08 0.08 0 0.1 0.08 0 
0.12 0.08 0 0.14 0.08 0 0.16 0.08 0 
0.18 0.08 0 0.2 0.08 0 0.22 0.08 0 
0.24 0.08 0 0.26 0.08 0 0.28 0.08 0 
0.3 0.08 0 0.32 0.08 0 0.34 0.08 0 
0.36 0.08 0 0.38 0.08 0 0.4 0.08 0 
0.42 0.08 0 0.44 0.08 0 0.46 0.08 0 
0.48 0.08 0 0.5 0.08 0 0.52 0.08 0 
0.54 0.08 0 0.56 0.08 0 0.58 0.08 0 
0.6 0.08 0 0.62 0.08 0 0.64 0.08 0 
0.66 0.08 0 0.68 0.08 0 0.7 0.08 0 
0.72 0.08 0 0.74 0.08 0 0.76 0.08 0 
0.78 0.08 0 0.8 0.08 0 0.82 0.08 0 
0.84 0.08 0 0.86 0.08 0 0.88 0.08 0 
0.9 0.08 0 0.92 0.08 0 0.94 0.08 0 
0.96 0.08 0 0.98 0.08 0 1 0.08 0 
0 0.1 0 0.02 0.1 0 0.04 0.1 0 
0.06 0.1 0 0.08 0.1 0 0.1 0.1 0 
0.12 0.1 0 0.14 0.1 0 0.16 0.1 0 
0.18 0.1 0 0.2 0.1 0 0.22 0.1 0 
0.24 0.1 0 0.26 0.1 0 0.28 0.1 0 
0.3 0.1 0 0.32 0.1 0 0.34 0.1 0 
0.36 0.1 0 0.38 0.1 0 0.4 0.1 0 
0.42 0.1 0 0.44 0.1 0 0.46 0.1 0 
0.48 0.1 0 0.5 0.1 0 0.52 0.1 0 
0.54 0.1 0 0.56 0.1 0 0.58 0.1 0 
0.6 0.1 0 0.62 0.1 0 0.64 0.1 0 
0.66 0.1 0 0.68 0.1 0 0.7 0.1 0 
0.72 0.1 0 0.74 0.1 0 0.76 0.1 0 
0.78 0.1 0 0.8 0.1 0 0.82 0.1 0 
0.84 0.1 0 0.86 0.1 0 0.88 0.1 0 
0.9 0.1 0 0.92 0.1 0 0.94 0.1 0 
0.96 0.1 0 0.98 0.1 0 1 0.1 0 
0 0.12 0 0.02 0.12 0 0.04 0.12 0 
0.06 0.12 0 0.08 0.12 0 0.1 0.12 0 
0.12 0.12 0 0.14 0.12 0 0.16 0.12 0 
0.18 0.12 0 0.2 0.12 0 0.22 0.12 0 
0.24 0.12 0 0.26 0.12 0 0.28 0.12 0 
0.3 0.12 0 0.32 0.12 0 0.34 0.12 0 
0.36 0.12 0 0.38 0.12 0 0.4 0.12 0 
0.42 0.12 0 0.44 0.12 0 0.46 0.12 0 
0.48 0.12 0 0.5 0.12 0 0.52 0.12 0 
0.54 0.12 0 0.56 0.12 0 0.58 0.12 0 
0.6 0.12 0 0.62 0.12 0 0.64 0.12 0 
0.66 0.12 0 0.68 0.12 0 0.7 0.12 0 
0.72 0.12 0 0.74 0.12 0 0.76 0.12 0 
0.78 0.12 0 0.8 0.12 0 0.82 0.12 0 
0.84 0.12 0 0.86 0.12 0 0.88 0.12 0 
0.9 0.12 0 0.92 0.12 0 0.94 0.12 0 
0.96 0.12 0 0.98 0.12 0 1 0.12 0 
0 0.14 0 0.02 0.14 0 0.04 0.14 0 
0.06 0.14 0 0.08 0.14 0 0.1 0.14 0 
0.12 0.14 0 0.14 0.14 0 0.16 0.14 0 
0.18 0.14 0 0.2 0.14 0 0.22 0.14 0 
0.24 0.14 0 0.26 0.14 0 0.28 0.14 0 
0.3 0.14 0 0.32 0.14 0 0.34 0.14 0 
0.36 0.14 0 0.38 0.14 0 0.4 0.14 0 
0.42 0.14 0 0.44 0.14 0 0.46 0.14 0 
0.48 0.14 0 0.5 0.14 0 0.52 0.14 0 
0.54 0.14 0 0.56 0.14 0 0.58 0.14 0 
0.6 0.14 0 0.62 0.14 0 0.64 0.14 0 
0.66 0.14 0 0.68 0.14 0 0.7 0.14 0 
0.72 0.14 0 0.74 0.14 0 0.76 0.14 0 
0.78 0.14 0 0.8 0.14 0 0.82 0.14 0 
0.84 0.14 0 0.86 0.14 0 0.88 0.14 0 
0.9 0.14 0 0.92 0.14 0 0.94 0.14 0 
0.96 0.14 0 0.98 0.14 0 1 0.14 0 
0 0.16 0 0.02 0.16 0 0.04 0.16 0 
0.06 0.16 0 0.08 0.16 0 0.1 0.16 0 
0.12 0.16 0 0.14 0.16 0 0.16 0.16 0 
0.18 0.16 0 0.2 0.16 0 0.22 0.16 0 
0.24 0.16 0 0.26 0.16 0 0.28 0.16 0 
0.3 0.16 0 0.32 0.16 0 0.34 0.16 0 
0.36 0.16 0 0.38 0.16 0 0.4 0.16 0 
0.42 0.16 0 0.44 0.16 0 0.46 0.16 0 
0.48 0.16 0 0.5 0.16 0 0.52 0.16 0 
0.54 0.16 0 0.56 0.16 0 0.58 0.16 0 
0.6 0.16 0 0.62 0.16 0 0.64 0.16 0 
0.66 0.16 0 0.68 0.16 0 0.7 0.16 0 
0.72 0.16 0 0.74 0.16 0 0.76 0.16 0 
0.78 0.16 0 0.8 0.16 0 0.82 0.16 0 
0.84 0.16 0 0.86 0.16 0 0.88 0.16 0 
0.9 0.16 0 0.92 0.16 0 0.94 0.16 0 
0.96 0.16 0 0.98 0.16 0 1 0.16 0 
0 0.18 0 0.02 0.18 0 0.04 0.18 0 
0.06 0.18 0 0.08 0.18 0 0.1 0.18 0 
0.12 0.18 0 0.14 0.18 0 0.16 0.18 0 
0.18 0.18 0 0.2 0.18 0 0.22 0.18 0 
0.24 0.18 0 0.26 0.18 0 0.28 0.18 0 
0.3 0.18 0 0.32 0.18 0 0.34 0.18 0 
0.36 0.18 0 0.38 0.18 0 0.4 0.18 0 
0.42 0.18 0 0.44 0.18 0 0.46 0.18 0 
0.48 0.18 0 0.5 0.18 0 0.52 0.18 0 
0.54 0.18 0 0.56 0.18 0 0.58 0.18 0 
0.6 0.18 0 0.62 0.18 0 0.64 0.18 0 
0.66 0.18 0 0.68 0.18 0 0.7 0.18 0 
0.72 0.18 0 0.74 0.18 0 0.76 0.18 0 
0.78 0.18 0 0.8 0.18 0 0.82 0.18 0 
0.84 0.18 0 0.86 0.18 0 0.88 0.18 0 
0.9 0.18 0 0.92 0.18 0 0.94 0.18 0 
0.96 0.18 0 0.98 0.18 0 1 0.18 0 
0 0.2 0 0.02 0.2 0 0.04 0.2 0 
0.06 0.2 0 0.08 0.2 0 0.1 0.2 0 
0.12 0.2 0 0.14 0.2 0 0.16 0.2 0 
0.18 0.2 0 0.2 0.2 0 0.22 0.2 0 
0.24 0.2 0 0.26 0.2 0 0.28 0.2 0 
0.3 0.2 0 0.32 0.2 0 0.34 0.2 0 
0.36 0.2 0 0.38 0.2 0 0.4 0.2 0 
0.42 0.2 0 0.44 0.2 0 0.46 0.2 0 
0.48 0.2 0 0.5 0.2 0 0.52 0.2 0 
0.54 0.2 0 0.56 0.2 0 0.58 0.2 0 
0.6 0.2 0 0.62 0.2 0 0.64 0.2 0 
0.66 0.2 0 0.68 0.2 0 0.7 0.2 0 
0.72 0.2 0 0.74 0.2 0 0.76 0.2 0 
0.78 0.2 0 0.8 0.2 0 0.82 0.2 0 
0.84 0.2 0 0.86 0.2 0 0.88 0.2 0 
0.9 0.2 0 0.92 0.2 0 0.94 0.2 0 
0.96 0.2 0 0.98 0.2 0 1 0.2 0 
0 0.22 0 0.02 0.22 0 0.04 0.22 0 
0.06 0.22 0 0.08 0.22 0 0.1 0.22 0 
0.12 0.22 0 0.14 0.22 0 0.16 0.22 0 
0.18 0.22 0 0.2 0.22 0 0.22 0.22 0 
0.24 0.22 0 0.26 0.22 0 0.28 0.22 0 
0.3 0.22 0 0.32 0.22 0 0.34 0.22 0 
0.36 0.22 0 0.38 0.22 0 0.4 0.22 0 
0.42 0.22 0 0.44 0.22 0 0.46 0.22 0 
0.48 0.22 0 0.5 0.22 0 0.52 0.22 0 
0.54 0.22 0 0.56 0.22 0 0.58 0.22 0 
0.6 0.22 0 0.62 0.22 0 0.64 0.22 0 
0.66 0.22 0 0.68 0.22 0 0.7 0.22 0 
0.72 0.22 0 0.74 0.22 0 0.76 0.22 0 
0.78 0.22 0 0.8 0.22 0 0.82 0.22 0 
0.84 0.22 0 0.86 0.22 0 0.88 0.22 0 
0.9 0.22 0 0.92 0.22 0 0.94 0.22 0 
0.96 0.22 0 0.98 0.22 0 1 0.22 0 
0 0.24 0 0.02 0.24 0 0.04 0.24 0 
0.06 0.24 0 0.08 0.24 0 0.1 0.24 0 
0.12 0.24 0 0.14 0.24 0 0.16 0.24 0 
0.18 0.24 0 0.2 0.24 0 0.22 0.24 0 
0.24 0.24 0 0.26 0.24 0 0.28 0.24 0 
0.3 0.24 0 0.32 0.24 0 0.34 0.24 0 
0.36 0.24 0 0.38 0.24 0 0.4 0.24 0 
0.42 0.24 0 0.44 0.24 0 0.46 0.24 0 
0.48 0.24 0 0.5 0.24 0 0.52 0.24 0 
0.54 0.24 0 0.56 0.24 0 0.58 0.24 0 
0.6 0.24 0 0.62 0.24 0 0.64 0.24 0 
0.66 0.24 0 0.68 0.24 0 0.7 0.24 0 
0.72 0.24 0 0.74 0.24 0 0.76 0.24 0 
0.78 0.24 0 0.8 0.24 0 0.82 0.24 0 
0.84 0.24 0 0.86 0.24 0 0.88 0.24 0 
0.9 0.24 0 0.92 0.24 0 0.94 0.24 0 
0.96 0.24 0 0.98 0.24 0 1 0.24 0 
0 0.26 0 0.02 0.26 0 0.04 0.26 0 
0.06 0.26 0 0.08 0.26 0 0.1 0.26 0 
0.12 0.26 0 0.14 0.26 0 0.16 0.26 0 
0.18 0.26 0 0.2 0.26 0 0.22 0.26 0 
0.24 0.26 0 0.26 0.26 0 0.28 0.26 0 
0.3 0.26 0 0.32 0.26 0 0.34 0.26 0 
0.36 0.26 0 0.38 0.26 0 0.4 0.26 0 
0.42 0.26 0 0.44 0.26 0 0.46 0.26 0 
0.48 0.26 0 0.5 0.26 0 0.52 0.26 0 
0.54 0.26 0 0.56 0.26 0 0.58 0.26 0 
0.6 0.26 0 0.62 0.26 0 0.64 0.26 0 
0.66 0.26 0 0.68 0.26 0 0.7 0.26 0 
0.72 0.26 0 0.74 0.26 0 0.76 0.26 0 
0.78 0.26 0 0.8 0.26 0 0.82 0.26 0 
0.84 0.26 0 0.86 0.26 0 0.88 0.26 0 
0.9 0.26 0 0.92 0.26 0 0.94 0.26 0 
0.96 0.26 0 0.98 0.26 0 1 0.26 0 
0 0.28 0 0.02 0.28 0 0.04 0.28 0 
0.06 0.28 0 0.08 0.28 0 0.1 0.28 0 
0.12 0.28 0 0.14 0.28 0 0.16 0.28 0 
0.18 0.28 0 0.2 0.28 0 0.22 0.28 0 
0.24 0.28 0 0.26 0.28 0 0.28 0.28 0 
0.3 0.28 0 0.32 0.28 0 0.34 0.28 0 
0.36 0.28 0 0.38 0.28 0 0.4 0.28 0 
0.42 0.28 0 0.44 0.28 0 0.46 0.28 0 
0.48 0.28 0 0.5 0.28 0 0.52 0.28 0 
0.54 0.28 0 0.56 0.28 0 0.58 0.28 0 
0.6 0.28 0 0.62 0.28 0 0.64 0.28 0 
0.66 0.28 0 0.68 0.28 0 0.7 0.28 0 
0.72 0.28 0 0.74 0.28 0 0.76 0.28 0 
0.78 0.28 0 0.8 0.28 0 0.82 0.28 0 
0.84 0.28 0 0.86 0.28 0 0.88 0.28 0 
0.9 0.28 0 0.92 0.28 0 0.94 0.28 0 
0.96 0.28 0 0.98 0.28 0 1 0.28 0 
0 0.3 0 0.02 0.3 0 0.04 0.3 0 
0.06 0.3 0 0.08 0.3 0 0.1 0.3 0 
0.12 0.3 0 0.14 0.3 0 0.16 0.3 0 
0.18 0.3 0 0.2 0.3 0 0.22 0.3 0 
0.24 0.3 0 0.26 0.3 0 0.28 0.3 0 
0.3 0.3 0 0.32 0.3 0 0.34 0.3 0 
0.36 0.3 0 0.38 0.3 0 0.4 0.3 0 
0.42 0.3 0 0.44 0.3 0 0.46 0.3 0 
0.48 0.3 0 0.5 0.3 0 0.52 0.3 0 
0.54 0.3 0 0.56 0.3 0 0.58 0.3 0 
0.6 0.3 0 0.62 0.3 0 0.64 0.3 0 
0.66 0.3 0 0.68 0.3 0 0.7 0.3 0 
0.72 0.3 0 0.74 0.3 0 0.76 0.3 0 
0.78 0.3 0 0.8 0.3 0 0.82 0.3 0 
0.84 0.3 0 0.86 0.3 0 0.88 0.3 0 
0.9 0.3 0 0.92 0.3 0 0.94 0.3 0 
0.96 0.3 0 0.98 0.3 0 1 0.3 0 
0 0.32 0 0.02 0.32 0 0.04 0.32 0 
0.06 0.32 0 0.08 0.32 0 0.1 0.32 0 
0.12 0.32 0 0.14 0.32 0 0.16 0.32 0 
0.18 0.32 0 0.2 0.32 0 0.22 0.32 0 
0.24 0.32 0 0.26 0.32 0 0.28 0.32 0 
0.3 0.32 0 0.32 0.32 0 0.34 0.32 0 
0.36 0.32 0 0.38 0.32 0 0.4 0.32 0 
0.42 0.32 0 0.44 0.32 0 0.46 0.32 0 
0.48 0.32 0 0.5 0.32 0 0.52 0.32 0 
0.54 0.32 0 0.56 0.32 0 0.58 0.32 0 
[...]
CELL_DATA 2500
FIELD FieldData 2
pressure 1 2500 double
-0.0068356059777 -0.006841084098 -0.0068448729681 -0.0068438768284 -0.0068369508543 -0.0068238500991 -0.006804654995 -0.0067794949492 -0.0067484511832 
-0.0067115243653 -0.0066686430963 -0.0066196669955 -0.0065644107522 -0.0065026562096 -0.0064341551712 -0.0063586506596 -0.0062758793671 -0.0061855888414 
-0.0060875439663 -0.0059815494044 -0.005867464387 -0.0057452214019 -0.0056148509627 -0.0054765051062 -0.0053304830024 -0.0051772613934 -0.0050175182691 
-0.0048521562701 -0.0046823197619 -0.0045094106419 -0.0043355203067 -0.0041627222387 -0.0039931691999 -0.0038292105293 -0.0036732834952 -0.0035277970612 
-0.0033950040238 -0.003276870743 -0.0031749492569 -0.003090265892 -0.0030232389459 -0.0029736340113 -0.0029405591108 -0.0029224992653 -0.0029173715566 
-0.002922582624 -0.002935051047 -0.0029511435238 -0.0029664796072 -0.0029757103576 -0.0068298680887 -0.0068354460915 -0.006837581364 -0.0068349425771 
-0.0068268389231 -0.0068130202095 -0.0067934375841 -0.0067681004086 -0.0067370008204 -0.0067000884508 -0.0066572551132 -0.0066083513003 -0.0065531926741 
-0.0064915555859 -0.0064232079673 -0.0063478983546 -0.006265378932 -0.0061754056483 -0.0060777625974 -0.005972267113 -0.0058587900013 -0.0057372752286 
-0.0056077588191 -0.0054703947578 -0.0053254834613 -0.0051734953762 -0.0050150972645 -0.0048511773581 -0.0046828617889 -0.0045115162592 -0.0043393837847 
-0.0041683325075 -0.0040005372342 -0.0038383381569 -0.003684151181 -0.0035403603559 -0.0034091922508 -0.0032925836487 -0.0031920503617 -0.0031085738816 
-0.0030425159112 -0.0029935682123 -0.0029607509494 -0.0029424420707 -0.0029364392141 -0.0029400418791 -0.0029501383424 -0.0029633119096 -0.0029760120869 
-0.0029849088337 -0.0068260176895 -0.0068334880894 -0.0068355841727 -0.0068322561839 -0.0068234281793 -0.0068090674818 -0.0067891629605 -0.0067636933889 
-0.0067326078933 -0.0066958088696 -0.0066531646144 -0.0066045113476 -0.006549644824 -0.0064883506639 -0.0064203881903 -0.0063455142892 -0.0062634781459 
-0.0061740451444 -0.0060769970835 -0.0059721498026 -0.0058593679489 -0.0057385816073 -0.0056098105629 -0.0054731874843 -0.0053289844929 -0.0051776395347 
-0.005019790116 -0.0048562993106 -0.0046882749155 -0.0045172388534 -0.0043452061194 -0.004174065859 -0.0040060624408 -0.0038435999627 -0.0036891670588 
-0.0035452252637 -0.0034140808473 -0.0032977377396 -0.0031977585284 -0.0031151369015 -0.0030501993415 -0.0030025593417 -0.0029711077122 -0.0029540592934 
-0.0029490413399 -0.0029532162617 -0.0029634429551 -0.0029765078724 -0.0029894789936 -0.0030002480404 -0.0068280921727 -0.0068375482982 -0.0068402071222 
-0.0068367673698 -0.0068276242606 -0.0068129841011 -0.0067929310146 -0.0067674656579 -0.0067365168045 -0.0066999713777 -0.0066576785743 -0.0066094499565 
-0.0065550818552 -0.006494343299 -0.0064269953851 -0.0063527835057 -0.0062714598018 -0.006182778111 -0.0060865084078 -0.0059824500208 -0.00587044028 
-0.0057503794553 -0.0056222478006 -0.0054861310338 -0.0053422472024 -0.0051909835186 -0.0050329315108 -0.0048689170013 -0.0047000317721 -0.0045279699839 
-0.0043544254704 -0.0041814775825 -0.0040114614377 -0.0038469097971 -0.0036904629948 -0.0035447534567 -0.003412255767 -0.0032951296269 -0.0031950520253 
-0.0031130683501 -0.0030494871344 -0.003003811759 -0.0029747512823 -0.0029602852969 -0.0029577928896 -0.0029642287123 -0.0029763482629 -0.0029910027387 
-0.0030055385834 -0.0030183224902 -0.0068384787645 -0.0068495352571 -0.0068528777989 -0.0068496219508 -0.0068404696997 -0.0068258117948 -0.0068058261338 
-0.0067805406266 -0.0067498957952 -0.0067137703509 -0.0066719960553 -0.006624380117 -0.0065707023345 -0.0065107272951 -0.0064442006285 -0.006370866169 
-0.0062904592299 -0.0062027137319 -0.0061073803382 -0.0060042192829 -0.0058930317106 -0.0057736660315 -0.0056460415752 -0.0055101725587 -0.0053662069684 
-0.0052144619441 -0.0050554604804 -0.0048899799512 -0.0047191052738 -0.0045445223147 -0.0043679314002 -0.0041915197693 -0.0040177686963 -0.0038494006858 
-0.0036892879647 -0.0035403164731 -0.0034052241825 -0.0032864054109 -0.0031857155675 -0.0031042956392 -0.0030424288138 -0.0029994772444 -0.0029738929848 
-0.002963319526 -0.0029647773914 -0.0029749002532 -0.0029902187206 -0.0030074778288 -0.0030240209027 -0.0030382439149 -0.0068586129577 -0.0068708384852 
-0.0068748045256 -0.0068718661886 -0.0068629141612 -0.006848461854 -0.0068287469545 -0.0068038342264 -0.0067736742963 -0.0067381413154 -0.0066970653149 
-0.0066502425986 -0.006597445153 -0.0065384230718 -0.0064729180568 -0.006400654431 -0.0063213428642 -0.0062347002579 -0.0061404270428 -0.006038250245 
-0.0059279096253 -0.0058091848593 -0.0056819123185 -0.0055460240563 -0.0054015746022 -0.005248784888 -0.005088093258 -0.0049202105186 -0.0047461799016 
-0.0045676542374 -0.0043864842792 -0.004204970897 -0.0040257805287 -0.0038518885536 -0.0036864743546 -0.003532772098 -0.0033938728113 -0.0032724977018 
-0.0031707574864 -0.0030899268005 -0.0030302700947 -0.0029909563069 -0.0029700827713 -0.0029648264242 -0.0029716979658 -0.0029868655197 -0.0030064821998 
-0.0030270355487 -0.0030456966712 -0.0030607114697 -0.0068893662281 -0.0069024055206 -0.0069068924047 -0.0069043280671 -0.0068957183038 -0.006881642509 
-0.006862382851 -0.0068380260569 -0.0068085276446 -0.0067737660899 -0.0067335668361 -0.0066877199241 -0.0066359858574 -0.0065781119288 -0.0065138188849 
-0.0064428072403 -0.0063647727419 -0.0062793763298 -0.0061862943512 -0.0060851831249 -0.0059757145476 -0.0058575806387 -0.0057305286794 -0.0055943804459 
-0.00544907869 -0.0052947301838 -0.0051316632028 -0.0049604902123 -0.0047821826127 -0.0045983646848 -0.0044111096582 -0.0042228562188 -0.004036498379 
-0.0038553248105 -0.0036829049584 -0.0035229179298 -0.0033789223466 -0.003254077614 -0.0031508436665 -0.0030706870627 -0.0030138583676 -0.002979271098 
-0.0029645490077 -0.0029662294153 -0.0029801307245 -0.0030017537953 -0.0030267322825 -0.0030511789639 -0.0030720096168 -0.0030872881232 -0.0069312523736 
-0.0069448423479 -0.0069497586342 -0.0069475967189 -0.006939425217 -0.0069258640634 -0.0069072195795 -0.0068835850252 -0.0068549229546 -0.0068211109045 
-0.0067819715928 -0.0067372866204 -0.0066868171468 -0.0066302893983 -0.0065674058177 -0.0064978524204 -0.0064212717369 -0.006337308786 -0.0062455641935 
-0.0061456349086 -0.0060371053373 -0.0059195754505 -0.0057926784731 -0.0056561158646 -0.0055096939717 -0.005353383759 -0.0051873720687 -0.0050121496152 
-0.0048285810933 -0.0046382079829 -0.0044434062296 -0.0042467713838 -0.0040514607675 -0.0038611372115 -0.0036798526069 -0.0035118508124 -0.0033612947318 
-0.0032319233928 -0.0031266663157 -0.0030472681948 -0.0029939741884 -0.0029653865309 -0.0029584964974 -0.0029689989768 -0.0029917506177 -0.0030213965827 
-0.0030528775755 -0.003081840004 -0.0031049254418 -0.0031200492948 -0.0069845430676 -0.0069984991108 -0.0070037812765 -0.0070020411579 -0.0069943849263 
-0.0069814566571 -0.0069635674398 -0.0069408150952 -0.0069131618085 -0.006880483538 -0.0068425971521 -0.0067992870609 -0.0067502963106 -0.0066953384057 
-0.0066341031712 -0.0065662314768 -0.0064913542845 -0.0064090449925 -0.0063188559585 -0.006220300587 -0.0061128738307 -0.0059960714853 -0.0058693982453 
-0.0057324141497 -0.0055847792632 -0.0054262882482 -0.0052569743987 -0.0050771605632 -0.0048875627202 -0.0046895092638 -0.0044857811766 -0.0042791293523 
-0.0040730067526 -0.0038715207287 -0.0036793066115 -0.0035013095348 -0.0033424602808 -0.0032072553886 -0.0030992644859 -0.0030206239882 -0.002971631092 
-0.0029504907938 -0.0029533964356 -0.0029748967667 -0.0030086158539 -0.0030480504227 -0.0030872877335 -0.00312144499 -0.0031469056616 -0.0031614877599 
-0.0070493394223 -0.007063537509 -0.0070691470321 -0.007067852209 -0.0070607853833 -0.0070485968077 -0.0070315989996 -0.007009888327 -0.0069834240192 
-0.006952077056 -0.0069156669204 -0.0068739650563 -0.0068267047756 -0.0067735924229 -0.0067142802728 -0.0066484017971 -0.0065755280948 -0.0064951940633 
-0.0064068764324 -0.0063100095876 -0.0062040009768 -0.0060882125134 -0.0059620261461 -0.0058248481582 -0.0056761464898 -0.0055155494391 -0.0053428699021 
-0.0051582359473 -0.0049621663881 -0.004755543085 -0.0045416543775 -0.0043234094759 -0.0041045857027 -0.0038897907478 -0.0036843460771 -0.0034940519905 
-0.0033248107719 -0.0031821078746 -0.0030703759817 -0.002992337338 -0.0029483985984 -0.0029363258575 -0.0029512675237 -0.0029863006764 -0.0030334076536 
-0.0030846184085 -0.0031329811871 -0.0031730274726 -0.0032009538567 -0.0032145251422 -0.0071256193627 -0.0071399770887 -0.0071458955243 -0.0071450817917 
-0.0071386796375 -0.0071273402822 -0.0071113753239 -0.0070908763054 -0.0070657968494 -0.0070360090715 -0.0070013244131 -0.0069615060134 -0.0069162859975 
-0.0068653407312 -0.0068083192804 -0.0067448115491 -0.0066743571317 -0.0065964282558 -0.0065104391805 -0.0064157545699 -0.0063116531804 -0.0061974078324 
-0.006072238767 -0.0059353767337 -0.0057861202639 -0.0056238480164 -0.0054481607213 -0.0052589088155 -0.0050563640924 -0.0048407341451 -0.004615732433 
-0.0043844938699 -0.0041511324444 -0.003920800163 -0.0036996064582 -0.0034943739828 -0.0033122107207 -0.0031598740484 -0.003042972782 -0.0029650635954 
-0.0029268275626 -0.0029255350583 -0.0029550366725 -0.0030064934796 -0.003069723386 -0.0031348922451 -0.0031938149772 -0.0032403500226 -0.0032704562897 
-0.003282750146 -0.0072132673237 -0.0072277279936 -0.0072339553213 -0.0072336688163 -0.0072280145693 -0.0072176457001 -0.0072028682894 -0.0071837683327 
-0.00716029862 -0.0071323271247 -0.0070996579234 -0.0070620567278 -0.007019235915 -0.006970869425 -0.006916582552 -0.0068559372479 -0.0067884302103 
-0.0067134866862 -0.0066304730488 -0.0065386395909 -0.0064372136983 -0.0063253065175 -0.0062020069429 -0.0060663781741 -0.0059174825932 -0.0057544918259 
-0.0055766729786 -0.0053835671054 -0.0051750906387 -0.0049510278182 -0.0047143297187 -0.0044690502127 -0.0042195597566 -0.0039715533536 -0.0037319990085 
-0.0035088973889 -0.0033108085181 -0.0031461059016 -0.0030219659465 -0.0029431678706 -0.0029109278666 -0.0029220526351 -0.0029688189539 -0.0030398910937 
-0.0031222737663 -0.0032036928319 -0.0032746377859 -0.003327407568 -0.0033597817494 -0.0033704161909 -0.0073120913087 -0.007326615393 -0.0073331649293 
-0.0073334608093 -0.0073286528633 -0.0073193892179 -0.0073059723085 -0.0072884855247 -0.0072668805534 -0.0072410186536 -0.0072107089707 -0.0071757082726 
-0.0071357251859 -0.0070904291651 -0.0070394215361 -0.0069822434836 -0.0069183571655 -0.0068471677652 -0.0067679436099 -0.0066799220198 -0.006582182926 
-0.0064737617491 -0.0063535928989 -0.0062205557523 -0.0060735193817 -0.005911342451 -0.0057329904594 -0.005537622351 -0.0053246516709 -0.0050938580633 
-0.0048456717289 -0.0045860409597 -0.0043194506334 -0.0040520749443 -0.0037917445981 -0.0035477404468 -0.0033302956785 -0.0031497523634 -0.003015326735 
-0.0029335677823 -0.0029067029563 -0.0029313102454 -0.0029978853047 -0.0030919538647 -0.0031966773974 -0.0032965904303 -0.0033804648764 -0.0034393610996 
-0.003474063026 -0.0034824445498 -0.0074218340041 -0.0074363929296 -0.0074432852068 -0.0074442325789 -0.0074403798483 -0.0074323736274 -0.0074205129893 
-0.007404881521 -0.0073854262228 -0.0073620143539 -0.0073344549833 -0.0073025019668 -0.0072658717982 -0.0072242208969 -0.0071771449254 -0.0071241673339 
-0.0070647539836 -0.0069982338688 -0.0069238951372 -0.0068408589642 -0.0067481814801 -0.0066447740137 -0.0065294556904 -0.0064009452079 -0.0062578703802 
-0.0060988224283 -0.0059224570296 -0.0057274885461 -0.0055129578136 -0.005278239046 -0.0050203489869 -0.0047474547729 -0.0044640273436 -0.0041766325056 
-0.0038938863349 -0.003626305496 -0.0033858672837 -0.0031851434666 -0.0030358970761 -0.0029471589731 -0.0029229828873 -0.0029603687577 -0.0030482262938 
-0.00316825643 -0.0032986051688 -0.0034192138878 -0.0035161381477 -0.0035820891707 -0.0036184309829 -0.0036241022668 -0.0075421783027 -0.0075567477769 
-0.0075640127752 -0.00756568641 -0.0075629123224 -0.0075563329125 -0.00754624708 -0.0075327369424 -0.007515754046 -0.0074951727031 -0.0074708019822 
-0.0074424089362 -0.0074097135818 -0.0073723742484 -0.0073299908478 -0.0072821027538 -0.0072281348558 -0.0071674519522 -0.0070992782421 -0.0070227448895 
-0.0069368357283 -0.0068404151769 -0.006732203597 -0.0066107559578 -0.0064745226849 -0.0063218605596 -0.0061510486623 -0.0059604540825 -0.0057485339293 
-0.0055143249581 -0.0052521757651 -0.004969233838 -0.0046714020162 -0.0043654539138 -0.0040604624985 -0.0037678630103 -0.0035011650404 -0.0032751760317 
-0.0031045596039 -0.0030016181651 -0.0029734218611 -0.0030187701811 -0.003125980019 -0.0032730411058 -0.003431710457 -0.0035753756404 -0.0036861118789 
-0.0037598457967 -0.0037973647069 -0.003800209736 -0.007672747789 -0.0076873079113 -0.0076949759922 -0.0076974609031 -0.0076958991811 -0.0076909317593 
-0.0076828571094 -0.0076717601135 -0.0076576035778 -0.0076402648274 -0.0076195689604 -0.0075953010416 -0.0075671908863 -0.00753491746 -0.0074981066509 
-0.0074562964736 -0.0074089496143 -0.0073554313316 -0.0072949905065 -0.0072267569034 -0.0071497242429 -0.0070627379719 -0.0069644363856 -0.0068533319628 
-0.0067277166075 -0.0065857523445 -0.0064254344625 -0.0062447211014 -0.0060416504773 -0.0058142040022 -0.0055601203796 -0.0052725341115 -0.0049661512174 
-0.0046467414698 -0.0043231530042 -0.004006956519 -0.0037124149229 -0.0034560395129 -0.0032553421845 -0.0031265384333 -0.00308115674 -0.0031219564644 
-0.0032390847123 -0.0034085581709 -0.0035955686922 -0.0037644474955 -0.0038912865593 -0.003974581067 -0.0040138044286 -0.0040148407979 -0.0078131085507 
-0.0078276357372 -0.0078357434004 -0.0078391281273 -0.0078389215464 -0.0078357614282 -0.0078299482196 -0.0078215772576 -0.0078106170264 -0.0077969633081 
-0.007780467071 -0.0077609336865 -0.0077381208359 -0.0077117485538 -0.0076814702026 -0.0076468657475 -0.007607451907 -0.0075626343021 -0.0075117268443 
-0.0074539150689 -0.00738825996 -0.0073136100453 -0.0072286953965 -0.0071319799985 -0.0070217708115 -0.006896080361 -0.0067528048232 -0.0065896694277 
-0.0064044046295 -0.0061950108351 -0.0059602474943 -0.0056835086062 -0.0053806489639 -0.0050588156677 -0.0047261353489 -0.0043929607175 -0.004072779291 
-0.0037824756606 -0.0035416269209 -0.0033704790708 -0.0032863573193 -0.0032986904421 -0.0034034099494 -0.0035788353019 -0.0037864591418 -0.003980833246 
-0.0041279990323 -0.004222550711 -0.0042679491045 -0.0042705064138 -0.0079627623306 -0.007977235894 -0.0079858186863 -0.0079901950275 -0.0079914882803 
-0.0079903357182 -0.0079870437588 -0.0079817140684 -0.0079743354786 -0.0079648306025 -0.0079530802279 -0.0079389226909 -0.0079221686514 -0.0079025847974 
-0.0078798776414 -0.0078537113406 -0.0078236730323 -0.0077892710438 -0.0077499256208 -0.0077049606963 -0.0076535238544 -0.0075946711623 -0.0075272172135 
-0.0074498289002 -0.0073608663164 -0.0072585145551 -0.0071406920633 -0.0070051676138 -0.0068496397504 -0.0066718483313 -0.0064694902519 -0.0062389909178 
-0.0059568709846 -0.005651239788 -0.0053273358333 -0.0049917619531 -0.0046546224525 -0.0043307986297 -0.0040401960304 -0.0038064189618 -0.0036534255926 
-0.0036000629572 -0.0036529441887 -0.0037994101171 -0.0040041643257 -0.0042155561587 -0.004386503363 -0.0044973782767 -0.0045580666822 -0.0045684128747 
-0.0081211510543 -0.0081355490369 -0.0081446420401 -0.0081500988336 -0.0081530354244 -0.0081540893014 -0.0081535697832 -0.0081515994059 -0.0081481896585 
-0.0081432989518 -0.0081368465333 -0.0081287264329 -0.0081188122526 -0.0081069347203 -0.0080928978118 -0.0080764694883 -0.0080573562568 -0.0080352219327 
-0.0080096698325 -0.0079801954536 -0.0079462285844 -0.0079070526787 -0.0078618317425 -0.007809515702 -0.0077488962742 -0.0076785395926 -0.0075968248753 
-0.0075020181946 -0.007392224062 -0.0072654567349 -0.0071197506057 -0.0069532733397 -0.0067430598717 -0.0064822863822 -0.0061958202846 -0.005882677914 
-0.0055459201834 -0.0051951556269 -0.0048480624406 -0.0045301148396 -0.004271942101 -0.0041039525712 -0.0040482871226 -0.0041092280891 -0.0042649298435 
-0.0044668504531 -0.0046563083205 -0.0047966531321 -0.0048802524951 -0.0049101241182 -0.0082876544754 -0.0083019542975 -0.0083115895212 -0.0083182103991 
-0.0083229251201 -0.0083263672477 -0.0083288640592 -0.0083305547093 -0.0083314869265 -0.0083316604082 -0.0083310485232 -0.0083296180782 -0.0083273154841 
-0.0083240733241 -0.0083198215488 -0.008314462039 -0.0083078823679 -0.0082999640113 -0.0082905472097 -0.0082794472469 -0.0082664508898 -0.0082512837306 
-0.0082336117924 -0.0082130207849 -0.0081890382592 -0.0081611066764 -0.0081286821042 -0.0080910927402 -0.008047577062 -0.0079969623916 -0.0079371073139 
-0.0078645278495 -0.0077738772589 -0.0076119094811 -0.0074030271192 -0.0071478186316 -0.0068381050423 -0.0064744569842 -0.0060693280426 -0.0056480181623 
-0.0052470366957 -0.0049093696671 -0.0046763913088 -0.0045767058606 -0.0046134378627 -0.0047552129733 -0.0049415412222 -0.0051139932144 -0.0052407829519 
-0.0053029663733 -0.0084615918815 -0.008475772113 -0.0084859767121 -0.0084938345215 -0.0085004406083 -0.0085064381622 -0.0085121655479 -0.0085177919288 
-0.0085234055104 -0.0085290580512 -0.0085347949934 -0.0085406642206 -0.008546712598 -0.0085530057104 -0.0085596225557 -0.0085666490908 -0.008574216291 
-0.0085824747355 -0.0085916059121 -0.0086018619101 -0.0086135334975 -0.0086269956718 -0.0086426932784 -0.0086612291492 -0.0086833473936 -0.0087100896073 
-0.0087426848117 -0.0087825790796 -0.0088309903239 -0.0088879298451 -0.0089511065089 -0.0090144261139 -0.0090667945209 -0.0090919694657 -0.0090076494352 
-0.0088546426019 -0.0086067185995 -0.0082515993175 -0.0077937856212 -0.0072562843166 -0.0066799670922 -0.006119970458 -0.0056385778935 -0.0052939410513 
-0.0051244863874 -0.0051317534363 -0.0052704841333 -0.0054648159453 -0.0056497094861 -0.0057595361907 -0.008642227367 -0.0086562687968 -0.0086670628117 
-0.0086762102579 -0.0086848015794 -0.0086934850109 -0.0087026185975 -0.0087124080287 -0.0087229894748 -0.0087344799197 -0.0087470090361 -0.0087607220169 
-0.0087757917623 -0.0087924437836 -0.0088109353603 -0.0088315980682 -0.0088548454948 -0.0088811755784 -0.0089112289431 -0.0089458014193 -0.0089858828175 
-0.0090327192611 -0.0090879087858 -0.0091534917629 -0.0092321420196 -0.0093272312839 -0.0094429396002 -0.0095838967491 -0.0097541259576 -0.009955472091 
-0.0101850236 -0.010432646403 -0.010679378185 -0.01089815783 -0.011033975529 -0.011035435426 -0.010889835292 -0.01057071977 -0.010073253326 
-0.0094165709122 -0.0086440234349 -0.0078209953357 -0.0070297402026 -0.0063597749849 -0.0058917997413 -0.0056743661237 -0.0056978471141 -0.0058843914748 
-0.0061279785949 -0.0063029179058 -0.0088287776908 -0.0088426635259 -0.0088540544357 -0.0088645247096 -0.0088751584842 -0.0088866125619 -0.0088992742157 
-0.008913390331 -0.0089291542825 -0.0089467612463 -0.0089664353125 -0.0089884326184 -0.0090130877713 -0.009040795616 -0.0090720409486 -0.0091074396623 
-0.0091477403491 -0.0091938801679 -0.0092470514418 -0.0093087299507 -0.0093807985032 -0.0094656542638 -0.0095664097652 -0.0096871224725 -0.0098330742842 
-0.010011029203 -0.010229172563 -0.010496376661 -0.010820422069 -0.011205023584 -0.011645847581 -0.012126797198 -0.012618586885 -0.013080378597 
-0.013466295081 -0.013674142488 -0.013672215216 -0.013419591982 -0.012902364961 -0.012135260279 -0.011162229888 -0.010055715545 -0.0089142568672 
-0.007856458839 -0.0070073172394 -0.0064721376086 -0.0062964208651 -0.0064242233363 -0.0067095062492 -0.0069651356645 -0.009020420646 -0.0090341348832 
-0.0090461190064 -0.0090579164129 -0.009070605273 -0.0090848606448 -0.0091011029984 -0.0091196279588 -0.0091406961587 -0.0091645910101 -0.0091916341359 
-0.0092222310265 -0.00925687554 -0.0092961658249 -0.0093408528658 -0.0093918648925 -0.0094503456939 -0.0095177551238 -0.0095959132998 -0.0096871268564 