# vtk DataFile Version 4.1
vtk output
ASCII
DATASET STRUCTURED_GRID
DIMENSIONS 51 51 1
POINTS 2601 float
0 0 0 0.02 0 0 0.04 0 0 
0.06 0 0 0.08 0 0 0.1 0 0 
0.12 0 0 0.14 0 0 0.16 0 0 
0.18 0 0 0.2 0 0 0.22 0 0 
0.24 0 0 0.26 0 0 0.28 0 0 
0.3 0 0 0.32 0 0 0.34 0 0 
0.36 0 0 0.38 0 0 0.4 0 0 
0.42 0 0 0.44 0 0 0.46 0 0 
0.48 0 0 0.5 0 0 0.52 0 0 
0.54 0 0 0.56 0 0 0.58 0 0 
0.6 0 0 0.62 0 0 0.64 0 0 
0.66 0 0 0.68 0 0 0.7 0 0 
0.72 0 0 0.74 0 0 0.76 0 0 
0.78 0 0 0.8 0 0 0.82 0 0 
0.84 0 0 0.86 0 0 0.88 0 0 
0.9 0 0 0.92 0 0 0.94 0 0 
0.96 0 0 0.98 0 0 1 0 0 
0 0.02 0 0.02 0.02 0 0.04 0.02 0 
0.06 0.02 0 0.08 0.02 0 0.1 0.02 0 
0.12 0.02 0 0.14 0.02 0 0.16 0.02 0 
0.18 0.02 0 0.2 0.02 0 0.22 0.02 0 
0.24 0.02 0 0.26 0.02 0 0.28 0.02 0 
0.3 0.02 0 0.32 0.02 0 0.34 0.02 0 
0.36 0.02 0 0.38 0.02 0 0.4 0.02 0 
0.42 0.02 0 0.44 0.02 0 0.46 0.02 0 
0.48 0.02 0 0.5 0.02 0 0.52 0.02 0 
0.54 0.02 0 0.56 0.02 0 0.58 0.02 0 
0.6 0.02 0 0.62 0.02 0 0.64 0.02 0 
0.66 0.02 0 0.68 0.02 0 0.7 0.02 0 
0.72 0.02 0 0.74 0.02 0 0.76 0.02 0 
0.78 0.02 0 0.8 0.02 0 0.82 0.02 0 
0.84 0.02 0 0.86 0.02 0 0.88 0.02 0 
0.9 0.02 0 0.92 0.02 0 0.94 0.02 0 
0.96 0.02 0 0.98 0.02 0 1 0.02 0 
0 0.04 0 0.02 0.04 0 0.04 0.04 0 
0.06 0.04 0 0.08 0.04 0 0.1 0.04 0 
0.12 0.04 0 0.14 0.04 0 0.16 0.04 0 
0.18 0.04 0 0.2 0.04 0 0.22 0.04 0 
0.24 0.04 0 0.26 0.04 0 0.28 0.04 0 
0.3 0.04 0 0.32 0.04 0 0.34 0.04 0 
0.36 0.04 0 0.38 0.04 0 0.4 0.04 0 
0.42 0.04 0 0.44 0.04 0 0.46 0.04 0 
0.48 0.04 0 0.5 0.04 0 0.52 0.04 0 
0.54 0.04 0 0.56 0.04 0 0.58 0.04 0 
0.6 0.04 0 0.62 0.04 0 0.64 0.04 0 
0.66 0.04 0 0.68 0.04 0 0.7 0.04 0 
0.72 0.04 0 0.74 0.04 0 0.76 0.04 0 
0.78 0.04 0 0.8 0.04 0 0.82 0.04 0 
0.84 0.04 0 0.86 0.04 0 0.88 0.04 0 
0.9 0.04 0 0.92 0.04 0 0.94 0.04 0 
0.96 0.04 0 0.98 0.04 0 1 0.04 0 
0 0.06 0 0.02 0.06 0 0.04 0.06 0 
0.06 0.06 0 0.08 0.06 0 0.1 0.06 0 
0.12 0.06 0 0.14 0.06 0 0.16 0.06 0 
0.18 0.06 0 0.2 0.06 0 0.22 0.06 0 
0.24 0.06 0 0.26 0.06 0 0.28 0.06 0 
0.3 0.06 0 0.32 0.06 0 0.34 0.06 0 
0.36 0.06 0 0.38 0.06 0 0.4 0.06 0 
0.42 0.06 0 0.44 0.06 0 0.46 0.06 0 
0.48 0.06 0 0.5 0.06 0 0.52 0.06 0 
0.54 0.06 0 0.56 0.06 0 0.58 0.06 0 
0.6 0.06 0 0.62 0.06 0 0.64 0.06 0 
0.66 0.06 0 0.68 0.06 0 0.7 0.06 0 
0.72 0.06 0 0.74 0.06 0 0.76 0.06 0 
0.78 0.06 0 0.8 0.06 0 0.82 0.06 0 
0.84 0.06 0 0.86 0.06 0 0.88 0.06 0 
0.9 0.06 0 0.92 0.06 0 0.94 0.06 0 
0.96 0.06 0 0.98 0.06 0 1 0.06 0 
0 0.08 0 0.02 0.08 0 0.04 0.08 0 
0.06 0.08 0 0.08 0.08 0 0.1 0.08 0 
0.12 0.08 0 0.14 0.08 0 0.16 0.08 0 
0.18 0.08 0 0.2 0.08 0 0.22 0.08 0 
0.24 0.08 0 0.26 0.08 0 0.28 0.08 0 
0.3 0.08 0 0.32 0.08 0 0.34 0.08 0 
0.36 0.08 0 0.38 0.08 0 0.4 0.08 0 
0.42 0.08 0 0.44 0.08 0 0.46 0.08 0 
0.48 0.08 0 0.5 0.08 0 0.52 0.08 0 
0.54 0.08 0 0.56 0.08 0 0.58 0.08 0 
0.6 0.08 0 0.62 0.08 0 0.64 0.08 0 
0.66 0.08 0 0.68 0.08 0 0.7 0.08 0 
0.72 0.08 0 0.74 0.08 0 0.76 0.08 0 
0.78 0.08 0 0.8 0.08 0 0.82 0.08 0 
0.84 0.08 0 0.86 0.08 0 0.88 0.08 0 
0.9 0.08 0 0.92 0.08 0 0.94 0.08 0 
0.96 0.08 0 0.98 0.08 0 1 0.08 0 
0 0.1 0 0.02 0.1 0 0.04 0.1 0 
0.06 0.1 0 0.08 0.1 0 0.1 0.1 0 
0.12 0.1 0 0.14 0.1 0 0.16 0.1 0 
0.18 0.1 0 0.2 0.1 0 0.22 0.1 0 
0.24 0.1 0 0.26 0.1 0 0.28 0.1 0 
0.3 0.1 0 0.32 0.1 0 0.34 0.1 0 
0.36 0.1 0 0.38 0.1 0 0.4 0.1 0 
0.42 0.1 0 0.44 0.1 0 0.46 0.1 0 
0.48 0.1 0 0.5 0.1 0 0.52 0.1 0 
0.54 0.1 0 0.56 0.1 0 0.58 0.1 0 
0.6 0.1 0 0.62 0.1 0 0.64 0.1 0 
0.66 0.1 0 0.68 0.1 0 0.7 0.1 0 
0.72 0.1 0 0.74 0.1 0 0.76 0.1 0 
0.78 0.1 0 0.8 0.1 0 0.82 0.1 0 
0.84 0.1 0 0.86 0.1 0 0.88 0.1 0 
0.9 0.1 0 0.92 0.1 0 0.94 0.1 0 
0.96 0.1 0 0.98 0.1 0 1 0.1 0 
0 0.12 0 0.02 0.12 0 0.04 0.12 0 
0.06 0.12 0 0.08 0.12 0 0.1 0.12 0 
0.12 0.12 0 0.14 0.12 0 0.16 0.12 0 
0.18 0.12 0 0.2 0.12 0 0.22 0.12 0 
0.24 0.12 0 0.26 0.12 0 0.28 0.12 0 
0.3 0.12 0 0.32 0.12 0 0.34 0.12 0 
0.36 0.12 0 0.38 0.12 0 0.4 0.12 0 
0.42 0.12 0 0.44 0.12 0 0.46 0.12 0 
0.48 0.12 0 0.5 0.12 0 0.52 0.12 0 
0.54 0.12 0 0.56 0.12 0 0.58 0.12 0 
0.6 0.12 0 0.62 0.12 0 0.64 0.12 0 
0.66 0.12 0 0.68 0.12 0 0.7 0.12 0 
0.72 0.12 0 0.74 0.12 0 0.76 0.12 0 
0.78 0.12 0 0.8 0.12 0 0.82 0.12 0 
0.84 0.12 0 0.86 0.12 0 0.88 0.12 0 
0.9 0.12 0 0.92 0.12 0 0.94 0.12 0 
0.96 0.12 0 0.98 0.12 0 1 0.12 0 
0 0.14 0 0.02 0.14 0 0.04 0.14 0 
0.06 0.14 0 0.08 0.14 0 0.1 0.14 0 
0.12 0.14 0 0.14 0.14 0 0.16 0.14 0 
0.18 0.14 0 0.2 0.14 0 0.22 0.14 0 
0.24 0.14 0 0.26 0.14 0 0.28 0.14 0 
0.3 0.14 0 0.32 0.14 0 0.34 0.14 0 
0.36 0.14 0 0.38 0.14 0 0.4 0.14 0 
0.42 0.14 0 0.44 0.14 0 0.46 0.14 0 
0.48 0.14 0 0.5 0.14 0 0.52 0.14 0 
0.54 0.14 0 0.56 0.14 0 0.58 0.14 0 
0.6 0.14 0 0.62 0.14 0 0.64 0.14 0 
0.66 0.14 0 0.68 0.14 0 0.7 0.14 0 
0.72 0.14 0 0.74 0.14 0 0.76 0.14 0 
0.78 0.14 0 0.8 0.14 0 0.82 0.14 0 
0.84 0.14 0 0.86 0.14 0 0.88 0.14 0 
0.9 0.14 0 0.92 0.14 0 0.94 0.14 0 
0.96 0.14 0 0.98 0.14 0 1 0.14 0 
0 0.16 0 0.02 0.16 0 0.04 0.16 0 
0.06 0.16 0 0.08 0.16 0 0.1 0.16 0 
0.12 0.16 0 0.14 0.16 0 0.16 0.16 0 
0.18 0.16 0 0.2 0.16 0 0.22 0.16 0 
0.24 0.16 0 0.26 0.16 0 0.28 0.16 0 
0.3 0.16 0 0.32 0.16 0 0.34 0.16 0 
0.36 0.16 0 0.38 0.16 0 0.4 0.16 0 
0.42 0.16 0 0.44 0.16 0 0.46 0.16 0 
0.48 0.16 0 0.5 0.16 0 0.52 0.16 0 
0.54 0.16 0 0.56 0.16 0 0.58 0.16 0 
0.6 0.16 0 0.62 0.16 0 0.64 0.16 0 
0.66 0.16 0 0.68 0.16 0 0.7 0.16 0 
0.72 0.16 0 0.74 0.16 0 0.76 0.16 0 
0.78 0.16 0 0.8 0.16 0 0.82 0.16 0 
0.84 0.16 0 0.86 0.16 0 0.88 0.16 0 
0.9 0.16 0 0.92 0.16 0 0.94 0.16 0 
0.96 0.16 0 0.98 0.16 0 1 0.16 0 
0 0.18 0 0.02 0.18 0 0.04 0.18 0 
0.06 0.18 0 0.08 0.18 0 0.1 0.18 0 
0.12 0.18 0 0.14 0.18 0 0.16 0.18 0 
0.18 0.18 0 0.2 0.18 0 0.22 0.18 0 
0.24 0.18 0 0.26 0.18 0 0.28 0.18 0 
0.3 0.18 0 0.32 0.18 0 0.34 0.18 0 
0.36 0.18 0 0.38 0.18 0 0.4 0.18 0 
0.42 0.18 0 0.44 0.18 0 0.46 0.18 0 
0.48 0.18 0 0.5 0.18 0 0.52 0.18 0 
0.54 0.18 0 0.56 0.18 0 0.58 0.18 0 
0.6 0.18 0 0.62 0.18 0 0.64 0.18 0 
0.66 0.18 0 0.68 0.18 0 0.7 0.18 0 
0.72 0.18 0 0.74 0.18 0 0.76 0.18 0 
0.78 0.18 0 0.8 0.18 0 0.82 0.18 0 
0.84 0.18 0 0.86 0.18 0 0.88 0.18 0 
0.9 0.18 0 0.92 0.18 0 0.94 0.18 0 
0.96 0.18 0 0.98 0.18 0 1 0.18 0 
0 0.2 0 0.02 0.2 0 0.04 0.2 0 
0.06 0.2 0 0.08 0.2 0 0.1 0.2 0 
0.12 0.2 0 0.14 0.2 0 0.16 0.2 0 
0.18 0.2 0 0.2 0.2 0 0.22 0.2 0 
0.24 0.2 0 0.26 0.2 0 0.28 0.2 0 
0.3 0.2 0 0.32 0.2 0 0.34 0.2 0 
0.36 0.2 0 0.38 0.2 0 0.4 0.2 0 
0.42 0.2 0 0.44 0.2 0 0.46 0.2 0 
0.48 0.2 0 0.5 0.2 0 0.52 0.2 0 
0.54 0.2 0 0.56 0.2 0 0.58 0.2 0 
0.6 0.2 0 0.62 0.2 0 0.64 0.2 0 
0.66 0.2 0 0.68 0.2 0 0.7 0.2 0 
0.72 0.2 0 0.74 0.2 0 0.76 0.2 0 
0.78 0.2 0 0.8 0.2 0 0.82 0.2 0 
0.84 0.2 0 0.86 0.2 0 0.88 0.2 0 
0.9 0.2 0 0.92 0.2 0 0.94 0.2 0 
0.96 0.2 0 0.98 0.2 0 1 0.2 0 
0 0.22 0 0.02 0.22 0 0.04 0.22 0 
0.06 0.22 0 0.08 0.22 0 0.1 0.22 0 
0.12 0.22 0 0.14 0.22 0 0.16 0.22 0 
0.18 0.22 0 0.2 0.22 0 0.22 0.22 0 
0.24 0.22 0 0.26 0.22 0 0.28 0.22 0 
0.3 0.22 0 0.32 0.22 0 0.34 0.22 0 
0.36 0.22 0 0.38 0.22 0 0.4 0.22 0 
0.42 0.22 0 0.44 0.22 0 0.46 0.22 0 
0.48 0.22 0 0.5 0.22 0 0.52 0.22 0 
0.54 0.22 0 0.56 0.22 0 0.58 0.22 0 
0.6 0.22 0 0.62 0.22 0 0.64 0.22 0 
0.66 0.22 0 0.68 0.22 0 0.7 0.22 0 
0.72 0.22 0 0.74 0.22 0 0.76 0.22 0 
0.78 0.22 0 0.8 0.22 0 0.82 0.22 0 
0.84 0.22 0 0.86 0.22 0 0.88 0.22 0 
0.9 0.22 0 0.92 0.22 0 0.94 0.22 0 
0.96 0.22 0 0.98 0.22 0 1 0.22 0 
0 0.24 0 0.02 0.24 0 0.04 0.24 0 
0.06 0.24 0 0.08 0.24 0 0.1 0.24 0 
0.12 0.24 0 0.14 0.24 0 0.16 0.24 0 
0.18 0.24 0 0.2 0.24 0 0.22 0.24 0 
0.24 0.24 0 0.26 0.24 0 0.28 0.24 0 
0.3 0.24 0 0.32 0.24 0 0.34 0.24 0 
0.36 0.24 0 0.38 0.24 0 0.4 0.24 0 
0.42 0.24 0 0.44 0.24 0 0.46 0.24 0 
0.48 0.24 0 0.5 0.24 0 0.52 0.24 0 
0.54 0.24 0 0.56 0.24 0 0.58 0.24 0 
0.6 0.24 0 0.62 0.24 0 0.64 0.24 0 
0.66 0.24 0 0.68 0.24 0 0.7 0.24 0 
0.72 0.24 0 0.74 0.24 0 0.76 0.24 0 
0.78 0.24 0 0.8 0.24 0 0.82 0.24 0 
0.84 0.24 0 0.86 0.24 0 0.88 0.24 0 
0.9 0.24 0 0.92 0.24 0 0.94 0.24 0 
0.96 0.24 0 0.98 0.24 0 1 0.24 0 
0 0.26 0 0.02 0.26 0 0.04 0.26 0 
0.06 0.26 0 0.08 0.26 0 0.1 0.26 0 
0.12 0.26 0 0.14 0.26 0 0.16 0.26 0 
0.18 0.26 0 0.2 0.26 0 0.22 0.26 0 
0.24 0.26 0 0.26 0.26 0 0.28 0.26 0 
0.3 0.26 0 0.32 0.26 0 0.34 0.26 0 
0.36 0.26 0 0.38 0.26 0 0.4 0.26 0 
0.42 0.26 0 0.44 0.26 0 0.46 0.26 0 
0.48 0.26 0 0.5 0.26 0 0.52 0.26 0 
0.54 0.26 0 0.56 0.26 0 0.58 0.26 0 
0.6 0.26 0 0.62 0.26 0 0.64 0.26 0 
0.66 0.26 0 0.68 0.26 0 0.7 0.26 0 
0.72 0.26 0 0.74 0.26 0 0.76 0.26 0 
0.78 0.26 0 0.8 0.26 0 0.82 0.26 0 
0.84 0.26 0 0.86 0.26 0 0.88 0.26 0 
0.9 0.26 0 0.92 0.26 0 0.94 0.26 0 
0.96 0.26 0 0.98 0.26 0 1 0.26 0 
0 0.28 0 0.02 0.28 0 0.04 0.28 0 
0.06 0.28 0 0.08 0.28 0 0.1 0.28 0 
0.12 0.28 0 0.14 0.28 0 0.16 0.28 0 
0.18 0.28 0 0.2 0.28 0 0.22 0.28 0 
0.24 0.28 0 0.26 0.28 0 0.28 0.28 0 
0.3 0.28 0 0.32 0.28 0 0.34 0.28 0 
0.36 0.28 0 0.38 0.28 0 0.4 0.28 0 
0.42 0.28 0 0.44 0.28 0 0.46 0.28 0 
0.48 0.28 0 0.5 0.28 0 0.52 0.28 0 
0.54 0.28 0 0.56 0.28 0 0.58 0.28 0 
0.6 0.28 0 0.62 0.28 0 0.64 0.28 0 
0.66 0.28 0 0.68 0.28 0 0.7 0.28 0 
0.72 0.28 0 0.74 0.28 0 0.76 0.28 0 
0.78 0.28 0 0.8 0.28 0 0.82 0.28 0 
0.84 0.28 0 0.86 0.28 0 0.88 0.28 0 
0.9 0.28 0 0.92 0.28 0 0.94 0.28 0 
0.96 0.28 0 0.98 0.28 0 1 0.28 0 
0 0.3 0 0.02 0.3 0 0.04 0.3 0 
0.06 0.3 0 0.08 0.3 0 0.1 0.3 0 
0.12 0.3 0 0.14 0.3 0 0.16 0.3 0 
0.18 0.3 0 0.2 0.3 0 0.22 0.3 0 
0.24 0.3 0 0.26 0.3 0 0.28 0.3 0 
0.3 0.3 0 0.32 0.3 0 0.34 0.3 0 
0.36 0.3 0 0.38 0.3 0 0.4 0.3 0 
0.42 0.3 0 0.44 0.3 0 0.46 0.3 0 
0.48 0.3 0 0.5 0.3 0 0.52 0.3 0 
0.54 0.3 0 0.56 0.3 0 0.58 0.3 0 
0.6 0.3 0 0.62 0.3 0 0.64 0.3 0 
0.66 0.3 0 0.68 0.3 0 0.7 0.3 0 
0.72 0.3 0 0.74 0.3 0 0.76 0.3 0 
0.78 0.3 0 0.8 0.3 0 0.82 0.3 0 
0.84 0.3 0 0.86 0.3 0 0.88 0.3 0 
0.9 0.3 0 0.92 0.3 0 0.94 0.3 0 
0.96 0.3 0 0.98 0.3 0 1 0.3 0 
0 0.32 0 0.02 0.32 0 0.04 0.32 0 
0.06 0.32 0 0.08 0.32 0 0.1 0.32 0 
0.12 0.32 0 0.14 0.32 0 0.16 0.32 0 
0.18 0.32 0 0.2 0.32 0 0.22 0.32 0 
0.24 0.32 0 0.26 0.32 0 0.28 0.32 0 
0.3 0.32 0 0.32 0.32 0 0.34 0.32 0 
0.36 0.32 0 0.38 0.32 0 0.4 0.32 0 
0.42 0.32 0 0.44 0.32 0 0.46 0.32 0 
0.48 0.32 0 0.5 0.32 0 0.52 0.32 0 
0.54 0.32 0 0.56 0.32 0 0.58 0.32 0 
[...]
CELL_DATA 2500
FIELD FieldData 2
pressure 1 2500 double
-0.0056483189425 -0.0056323138848 -0.0056533289583 -0.0057178069134 -0.0058191184494 -0.0059475868578 -0.0060963789579 -0.0062625454132 -0.0064468242239 
-0.0066518183224 -0.0068818350551 -0.0071400966704 -0.0074266219996 -0.0077414932905 -0.0080797681091 -0.0084337497989 -0.0087927246216 -0.0091432000908 
-0.0094694139549 -0.0097538212951 -0.0099775706865 -0.010121054923 -0.010164641041 -0.01008961646 -0.0098793020069 -0.0095202767326 -0.0090036670081 
-0.0083264840957 -0.0074930695625 -0.0065167475653 -0.0054251883348 -0.0042781577941 -0.0031190060053 -0.0020033676588 -0.00099428410232 -0.000157179558 
0.00044706772928 0.00077102336697 0.00079081519378 0.00051595462355 2.4900033845e-05 -0.00060059644181 -0.0012611904951 -0.0018609250352 -0.0023347805182 
-0.0026689790544 -0.0028757762024 -0.0029760911074 -0.0029917039901 -0.0029506453591 -0.0056565747526 -0.0056426796119 -0.0056681855212 -0.0057324827238 
-0.005828433752 -0.0059472378042 -0.0060833285651 -0.0062345884926 -0.0064035132193 -0.0065925073796 -0.0068077753992 -0.0070534155659 -0.0073287637417 
-0.007632965615 -0.0079618121415 -0.0083082810412 -0.0086626800242 -0.0090127077453 -0.0093435378086 -0.0096380037725 -0.009877014885 -0.010040268544 
-0.010107225208 -0.010058250968 -0.009875838033 -0.0095458291229 -0.009058582281 -0.0084100533597 -0.0076027841825 -0.0066471692808 -0.0056082542727 
-0.0044986178971 -0.0033708602608 -0.002282474157 -0.0012962848348 -0.00047670228999 0.0001168110271 0.00043855355304 0.00046698591162 0.00021537063671 
-0.00026050805827 -0.00082855305928 -0.0014314153597 -0.0019726608007 -0.0023904592423 -0.0026772730791 -0.0028510674239 -0.0029363589775 -0.002953439727 
-0.0029113299266 -0.0056328086968 -0.0056213591985 -0.0056531768495 -0.0057219001404 -0.005816973041 -0.0059280381821 -0.0060522213942 -0.0061866177148 
-0.0063393940943 -0.0065161368976 -0.0067220697833 -0.0069614382017 -0.0072352341467 -0.0075423181931 -0.0078790403113 -0.0082391358371 -0.0086135391652 
-0.0089901310653 -0.0093536204696 -0.0096857658223 -0.0099660170049 -0.010172505448 -0.01028324234 -0.010277386563 -0.010136477385 -0.0098455628657 
-0.0093941827392 -0.0087770337955 -0.0079935061736 -0.0070943902216 -0.0060825881919 -0.0049954553169 -0.0038825129524 -0.0028008106965 -0.001812824313 
-0.00098255055374 -0.00036925589579 -1.8929776777e-05 4.6012017866e-05 -0.00016260016006 -0.00059057286302 -0.0011409722081 -0.001702247996 -0.0022104561399 
-0.0025871434892 -0.0028204085082 -0.0029486985118 -0.0030020510883 -0.0030025277206 -0.0029507535182 -0.0055669293338 -0.0055648579409 -0.0056076332025 
-0.0056843867429 -0.0057811218259 -0.0058869678958 -0.0060004240064 -0.0061243959008 -0.0062689486713 -0.0064425843551 -0.0066521027706 -0.0069020552283 
-0.0071941899406 -0.0075277529194 -0.0078994225488 -0.0083029150522 -0.0087284739369 -0.0091625292424 -0.0095877641227 -0.0099836818279 -0.010327597475 
-0.010595885178 -0.010765298063 -0.010814225633 -0.010723838731 -0.010479130505 -0.010069875437 -0.0094916025085 -0.0087536329168 -0.0078898686835 
-0.006903386204 -0.0058330648492 -0.0047263994015 -0.0036386672023 -0.0026308150806 -0.001765699542 -0.0011022397195 -0.00068739648551 -0.00054645006184 
-0.00067301560482 -0.0010218615271 -0.0015097805737 -0.002030783395 -0.0025003106526 -0.002857927073 -0.0030550164234 -0.0031435206668 -0.0031642975913 
-0.0031459669379 -0.0030924227034 -0.0054545238071 -0.0054690321383 -0.0055272637791 -0.0056138047172 -0.0057135912748 -0.0058189541563 -0.0059303498519 
-0.006056368539 -0.0062087986671 -0.0063984385758 -0.0066333993998 -0.0069188295976 -0.0072569306356 -0.0076469696193 -0.0080849578402 -0.0085630692444 
-0.0090691935418 -0.0095869184379 -0.010096043296 -0.010573561752 -0.010994926349 -0.011335383244 -0.01157123299 -0.011680962642 -0.011646272355 
-0.011453012636 -0.011092016387 -0.010559679911 -0.0098776229122 -0.0090448415882 -0.0080837081158 -0.0070286182472 -0.0059235229529 -0.0048204385657 
-0.003777381639 -0.0028549637979 -0.0021111577551 -0.001594080681 -0.0013331971912 -0.001330273204 -0.0015527738697 -0.0019337969513 -0.0023824848377 
-0.0028048811188 -0.0031187656522 -0.0033152579374 -0.0033846866556 -0.0033891024405 -0.0033628603517 -0.0033175849119 -0.005294268549 -0.0053313044691 
-0.0054066286462 -0.0055033306544 -0.0056124816968 -0.0057260078656 -0.0058503374374 -0.0059974626207 -0.0061807907076 -0.0064121300343 -0.0067002466779 
-0.0070505613858 -0.0074650467996 -0.0079419019991 -0.0084750361669 -0.0090536626772 -0.0096622879032 -0.010281213545 -0.01088751968 -0.011456324117 
-0.01196209306 -0.012379876238 -0.01268640166 -0.01286105195 -0.012886768857 -0.012750929692 -0.012446244945 -0.011971741189 -0.01133986327 
-0.010546527481 -0.0096149215994 -0.0085764704901 -0.0074710505619 -0.0063462798166 -0.0052559622345 -0.004257309273 -0.0034065549784 -0.0027527982758 
-0.0023303711802 -0.0021507980188 -0.0021964297457 -0.0024186927434 -0.0027436204049 -0.0030851741657 -0.0033647534636 -0.0035409007088 -0.0036238528498 
-0.0036392852421 -0.0036227999759 -0.0035941439444 -0.0050901036955 -0.005153647842 -0.0052464689834 -0.0053589000349 -0.0054827276397 -0.005618775455 
-0.0057762484678 -0.0059685204646 -0.0062093954946 -0.0065107079429 -0.0068811116236 -0.0073255029501 -0.0078445093063 -0.0084339365378 -0.0090844308987 
-0.0097815464442 -0.010506293249 -0.011236151161 -0.011946322142 -0.012611003842 -0.013204584207 -0.013702681335 -0.014083049708 -0.014326406625 
-0.014417232429 -0.014344597608 -0.014103083796 -0.013693940726 -0.013114989412 -0.012366741766 -0.011469583577 -0.01045110767 -0.0093463543745 
-0.0081975495265 -0.0070531341402 -0.0059657663875 -0.004988962765 -0.0041721913752 -0.0035545780167 -0.0031579603197 -0.0029807596742 -0.0029947541331 
-0.0031468925265 -0.0033676864881 -0.003587270553 -0.003758881309 -0.0038598873611 -0.0038955779655 -0.0039052384149 -0.0038987024106 -0.0048577937589 
-0.0049505866352 -0.0050612012937 -0.0051920304746 -0.0053432037629 -0.0055199087885 -0.0057326919106 -0.0059947916963 -0.0063193358662 -0.0067173720954 
-0.0071965491545 -0.0077600994702 -0.0084060327478 -0.0091267331897 -0.0099090664382 -0.010734994815 -0.011582653614 -0.012427613038 -0.013244125653 
-0.014006290777 -0.014689042494 -0.015268994567 -0.015725199912 -0.016039858681 -0.016199014435 -0.016193284809 -0.01601867821 -0.015677561873 
-0.015155893065 -0.014457685923 -0.013600243843 -0.012606828115 -0.011507027545 -0.010336867757 -0.0091384287752 -0.0079586847412 -0.0068472635601 
-0.0058529116904 -0.0050186790758 -0.0043762357808 -0.0039402421693 -0.0037041634791 -0.0036391474203 -0.003697483601 -0.0038217018755 -0.0039584649398 
-0.0040707121102 -0.0041588153144 -0.0042065692096 -0.0042247648154 -0.0046248815663 -0.0047452628798 -0.0048748433322 -0.0050325920442 -0.0052253197088 
-0.0054606282714 -0.0057490062502 -0.0061025864347 -0.0065331146633 -0.0070500644771 -0.0076589794936 -0.0083601693349 -0.0091480274674 -0.010011034974 
-0.010932376381 -0.011891067484 -0.012863244263 -0.01382340331 -0.014745559354 -0.01560420496 -0.016375120956 -0.01703610634 -0.01756762538 
-0.017953400368 -0.018180993869 -0.01824239577 -0.018134662467 -0.01786064847 -0.017398430542 -0.016754027932 -0.015941616142 -0.014979910121 
-0.013892688232 -0.012709223303 -0.01146444175 -0.010198577768 -0.0089560578808 -0.0077833841195 -0.006725907863 -0.0058236205792 -0.0051064024728 
-0.0045894887787 -0.0042701346763 -0.0041265485199 -0.0041201691949 -0.0042024242756 -0.0043271030278 -0.0044532009762 -0.0045379204782 -0.0045811103042 
-0.0044281644556 -0.0045718948026 -0.0047255898741 -0.0049195311057 -0.0051663531977 -0.0054747770055 -0.0058544465238 -0.0063159157187 -0.0068689775235 
-0.0075205843371 -0.0082729810266 -0.0091225601369 -0.010059585037 -0.011068673847 -0.012129904131 -0.013220112441 -0.014314137681 -0.015385992987 
-0.016409824959 -0.017360726613 -0.018215479725 -0.018953186331 -0.019555812772 -0.020008682463 -0.020300893888 -0.020425714755 -0.020381005447 
-0.02016970918 -0.01976650939 -0.019178122206 -0.018415673624 -0.017493367813 -0.016429112593 -0.015245189114 -0.013968852798 -0.012632702871 
-0.011274616597 -0.0099370251775 -0.0086653373254 -0.0075054071432 -0.0065000767809 -0.0056849612593 -0.0050837447378 -0.0047033442682 -0.0045295496697 
-0.0045246379912 -0.0046304716255 -0.004779025899 -0.0049126726042 -0.0049837619323 -0.0043099224697 -0.00447565501 -0.004656102301 -0.0048929076032 
-0.0052022911677 -0.0055932034107 -0.0060741374906 -0.0066537599805 -0.0073391956216 -0.0081338234799 -0.00903564577 -0.010036605191 -0.011122800241 
-0.012275456546 -0.013472178559 -0.014688176327 -0.015897457178 -0.017073806741 -0.018191634079 -0.019226765421 -0.020157107075 -0.020963201583 
-0.021628694644 -0.022140657146 -0.022489809128 -0.022670699702 -0.022681882116 -0.022526145306 -0.022179027222 -0.021647091882 -0.020938624597 
-0.020063594966 -0.019034298919 -0.017866143203 -0.016578537057 -0.015195819487 -0.013748095229 -0.012271796412 -0.010809743255 -0.009410439351 
-0.008126294259 -0.0070104032586 -0.0061114170485 -0.005465985922 -0.0050885898612 -0.0049601406069 -0.0050212610391 -0.0051822515315 -0.0053564866502 
-0.0054546363763 -0.0043109629381 -0.0044950833836 -0.0047035986244 -0.0049864870614 -0.0053622385008 -0.0058397310619 -0.0064262121032 -0.0071280089918 
-0.0079487218471 -0.0088873244851 -0.0099370825534 -0.011085421975 -0.012314669326 -0.013603181526 -0.014926510409 -0.016258591908 -0.017572757771 
-0.018842627931 -0.020042984064 -0.02115050503 -0.022144385301 -0.023006840876 -0.023723411143 -0.024283100479 -0.024678400242 -0.02490521611 
-0.024962780826 -0.0248536352 -0.02455757705 -0.024080694926 -0.023428765592 -0.022608030857 -0.021625742962 -0.020490920247 -0.019215355824 
-0.017814895792 -0.01631095969 -0.01473220243 -0.013116109626 -0.011510173228 -0.0099720997869 -0.0085682290749 -0.0073689957015 -0.006439989466 
-0.0058274157324 -0.0055386840365 -0.0055247714311 -0.0056820583368 -0.005885501544 -0.0060108904591 -0.0044605153448 -0.0046588729811 -0.0048946519995 
-0.0052234450008 -0.0056652720271 -0.0062288873546 -0.0069200672564 -0.0077421546112 -0.0086945450643 -0.0097714078603 -0.010961235856 -0.01224731287 
-0.013608666847 -0.015021123979 -0.016458455116 -0.017893405428 -0.01929863648 -0.020647692094 -0.021915835749 -0.023080767773 -0.024123225288 
-0.025027332416 -0.025780744467 -0.026374608627 -0.026803338667 -0.027064299787 -0.027157480529 -0.027085222513 -0.02683377609 -0.026408829986 
-0.025814094258 -0.025052771796 -0.024127908483 -0.023042984565 -0.021802849938 -0.020415120727 -0.018892122626 -0.017253383583 -0.015528545713 
-0.013760352998 -0.01200703554 -0.010342926938 -0.0088555328647 -0.0076366736753 -0.0067652793419 -0.0062812151259 -0.0061558090484 -0.0062791192904 
-0.0064917449011 -0.0066612644552 -0.0047751452166 -0.0049827207768 -0.005242964148 -0.0056148407279 -0.0061193912379 -0.0067650522456 -0.0075556331584 
-0.0084909521975 -0.0095659180713 -0.01076993583 -0.012087141171 -0.01349717009 -0.014976075225 -0.016497392687 -0.018033165359 -0.019554922741 
-0.021034736773 -0.022446178064 -0.023765156746 -0.024970654858 -0.026045181466 -0.026974990934 -0.02775006452 -0.02836383729 -0.028812764598 
-0.029095789341 -0.029213769914 -0.029168964587 -0.028955051151 -0.028577503164 -0.028038464198 -0.027338912262 -0.026478733359 -0.025457029465 
-0.024272820225 -0.022926328479 -0.021421035749 -0.019766655178 -0.017983039121 -0.016104774446 -0.014185778341 -0.012302535656 -0.010553706676 
-0.009052844945 -0.0079104695524 -0.0072031226502 -0.0069333534514 -0.0070012147427 -0.0072296176909 -0.0074302583892 -0.0052576583263 -0.0054688708823 
-0.0057494971621 -0.0061600064832 -0.006721860481 -0.0074426364005 -0.0083236767796 -0.009361071381 -0.010545361147 -0.011861673323 -0.013290357345 
-0.014807774642 -0.016387266747 -0.018000154412 -0.019616734048 -0.021207410969 -0.022743779914 -0.024199603886 -0.025551704643 -0.026780567246 
-0.027870682843 -0.028810621943 -0.029592797855 -0.03021301152 -0.030669830223 -0.03096385443 -0.031096917941 -0.031071145263 -0.030887870705 
-0.030552181832 -0.030065194419 -0.029426532408 -0.028634073067 -0.02768392738 -0.026570789048 -0.025288881522 -0.023833807331 -0.022205607008 
-0.020413236572 -0.018480419188 -0.016452317349 -0.014401628188 -0.012431498792 -0.010671234571 -0.009259684533 -0.0083118519273 -0.0078698852507 
-0.0078565496786 -0.0080814529214 -0.0083174774531 -0.0058982359924 -0.0061075983216 -0.0064040949966 -0.006848018906 -0.0074603430088 -0.0082471291158 
-0.009207010477 -0.010332489278 -0.011610275042 -0.01302188177 -0.014544337726 -0.016151060225 -0.017812825165 -0.019498763056 -0.021177551368 
-0.022818616977 -0.024393257079 -0.025875705269 -0.027243918242 -0.028480082606 -0.029570838847 -0.030507146379 -0.031283874868 -0.031899176946 
-0.032353697325 -0.032649733324 -0.032790404631 -0.03277628188 -0.032617839298 -0.032317957511 -0.031877507772 -0.031295627289 -0.030569342181 
-0.029693255392 -0.028659474019 -0.027458058288 -0.026078372983 -0.02451180776 -0.022756329582 -0.020823115116 -0.018744972241 -0.016585293126 
-0.014444802568 -0.012461469441 -0.010797146856 -0.0096041771654 -0.0089695494153 -0.0088504582028 -0.0090549001264 -0.0093232837088 -0.0066770181425 
-0.0068797626844 -0.0071878269678 -0.0076596273008 -0.0083146012027 -0.0091568315782 -0.010182288469 -0.011380394383 -0.012734752473 -0.014223825414 
-0.015821733833 -0.017499196636 -0.019224521509 -0.020964835064 -0.022687399408 -0.024360873942 -0.025956561712 -0.027449404093 -0.028818687423 
-0.030048464716 -0.031127584838 -0.032049387492 -0.032811125428 -0.033413159355 -0.033858052232 -0.03414963221 -0.034292080037 -0.034286260518 
-0.034147097211 -0.033876659473 -0.033475851486 -0.032943974623 -0.032278204979 -0.031473019953 -0.030519713586 -0.02940625116 -0.028117891704 
-0.026639196369 -0.024958137944 -0.023072916567 -0.021001603039 -0.018793686274 -0.016540872168 -0.014382109647 -0.012495223469 -0.011066003869 
-0.010228310228 -0.0099834529931 -0.010151065878 -0.010443945706 -0.0075672518511 -0.0077597050804 -0.0080754508099 -0.0085693956222 -0.0092585958789 
-0.010144958033 -0.011222143733 -0.012477196466 -0.01389123478 -0.015440150402 -0.017095499759 -0.018825486621 -0.020596206169 -0.022373060228 
-0.024122155558 -0.025811722336 -0.027413333115 -0.028902838038 -0.030261024574 -0.031473873606 -0.032532423613 -0.033432306288 -0.034172981081 
-0.034756788411 -0.035187935139 -0.03547148492 -0.035612450176 -0.035613012795 -0.03548871278 -0.035241628302 -0.034872965784 -0.034382655687 
-0.03376877592 -0.033026809863 -0.032148803326 -0.031122634251 -0.029931815911 -0.028556512351 -0.026976703482 -0.025178519723 -0.023164400046 
-0.020966682336 -0.018662318895 -0.016383566016 -0.014316053026 -0.012672780111 -0.011633371141 -0.011250311485 -0.011368958423 -0.011684571453 
-0.0085383777332 -0.008717938978 -0.0090377304532 -0.0095479313487 -0.010262708962 -0.011181866677 -0.012297304057 -0.013594290745 -0.015051957639 
-0.016644030228 -0.018339762348 -0.020105159767 -0.021904463677 -0.023701673226 -0.025462119616 -0.027153907096 -0.028749093746 -0.030224618813 
-0.031562841711 -0.032751652182 -0.033784196391 -0.034658226833 -0.035375159459 -0.035938995879 -0.036355205851 -0.036629716326 -0.036768057338 
-0.036773908302 -0.036661109406 -0.03643195637 -0.036088132431 -0.035630465556 -0.03505839514 -0.034369152208 -0.033556689924 -0.032610495429 
-0.031514610386 -0.030247518493 -0.028783983661 -0.027100230201 -0.025183756411 -0.023048152293 -0.020751236251 -0.018411536988 -0.016213848833 
-0.014390316003 -0.013162123738 -0.012636250456 -0.01269519888 -0.013024196574 -0.0095586509852 -0.0097233872177 -0.010043546264 -0.010564017565 
-0.011295894513 -0.01223714193 -0.0133783724 -0.014703513355 -0.01619010835 -0.017810023473 -0.019530561217 -0.02131595217 -0.023128971148 
-0.024932640363 -0.026691867579 -0.02837487293 -0.029954392069 -0.031408536309 -0.032721221916 -0.033882174657 -0.034886497137 -0.03573381641 
-0.036427196576 -0.036971902475 -0.037374230281 -0.037640518712 -0.037776452834 -0.037787066923 -0.037683217939 -0.037467452896 -0.0371419784 
-0.036708587454 -0.036168220353 -0.035520184681 -0.034761011267 -0.033882988723 -0.032872573146 -0.031709208926 -0.030365619401 -0.028811249979 
-0.027020836524 -0.024989415275 -0.022753019721 -0.020410628424 -0.018137774877 -0.016176486618 -0.014782549626 -0.014116966562 -0.014108389802 
-0.014442200311 -0.010597141392 -0.010745146343 -0.011061711463 -0.011586495964 -0.012327565192 -0.013281275546 -0.014437209444 -0.015778252585 
-0.017280653928 -0.018914762188 -0.02064638175 -0.022438412005 -0.024252631144 -0.026051487394 -0.027799746971 -0.029465956253 -0.031023628245 
-0.032452040407 -0.033736597136 -0.03486872835 -0.035845260219 -0.036667417069 -0.037339531763 -0.037867699868 -0.038258574266 -0.038518476873 
-0.038652914326 -0.038667983394 -0.038571158132 -0.038365199184 -0.038052758499 -0.037636484643 -0.037118722746 -0.036500836453 -0.035782132737 
-0.03495833097 -0.034019616368 -0.032948589516 -0.031719033269 -0.030297269625 -0.02864863977 -0.026751535738 -0.024619487627 -0.022327791446 
-0.020035193377 -0.01798392293 -0.016455340722 -0.015660586272 -0.01558044683 -0.015911422651 -0.011625293263 -0.011753649366 -0.012062346905 
-0.012585790511 -0.01332905845 -0.014286891822 -0.015447930002 -0.016794206406 -0.018300951109 -0.019937430871 -0.02166842926 -0.023456016444 
-0.025261423552 -0.027046858641 -0.028777185709 -0.03042140325 -0.031953815821 -0.033354801893 -0.034611136143 -0.035715734825 -0.036666892377 
-0.037467077695 -0.038121486014 -0.038636604684 -0.039019036946 -0.039274756633 -0.039408774315 -0.039427937797 -0.03933669528 -0.039137852268 
-0.038834338899 -0.038429467335 -0.037926736943 -0.037329320759 -0.036639155127 -0.035855518367 -0.034972977231 -0.033978788411 -0.03285040171 
-0.031554663327 -0.030051595313 -0.028306293253 -0.026311002633 -0.024115209013 -0.021854848879 -0.019763064953 -0.018136546807 -0.017229798376 
-0.017078295686 -0.017400177949 -0.012618797914 -0.012720500468 -0.013017819784 -0.013535060314 -0.014274654314 -0.015229579628 -0.016387552691 
-0.017729886524 -0.019231150808 -0.020860007581 -0.022580734023 -0.024355056246 -0.026144048402 -0.027909957771 -0.029617908375 -0.031237402312 
-0.032743487469 -0.034117536613 -0.035347495497 -0.036427515296 -0.03735702741 -0.038139356825 -0.038780148172 -0.039285906613 -0.039662914797 
-0.039916579933 -0.04005125294 -0.040073715487 -0.039987042822 -0.039793367826 -0.039495713494 -0.0390978433 -0.03860415207 -0.038019290208 
-0.037347464194 -0.036591245113 -0.035749649696 -0.03481532752 -0.033771189697 -0.032587747509 -0.031223937687 -0.029635885338 -0.027797472951 
-0.025732350525 -0.023549579085 -0.021465065326 -0.019780248238 -0.018784031941 -0.018565666654 -0.018873960441 -0.01355016594 -0.013628638247 
-0.013903997349 -0.014411105517 -0.015142290262 -0.016088426119 -0.017236394602 -0.018566934606 -0.020054397026 -0.021667348775 -0.023370063509 
-0.025124362812 -0.026891489656 -0.028633939211 -0.030317196263 -0.031911263793 -0.033391846464 -0.034741143385 -0.035948015086 -0.03700753035 
-0.037919870711 -0.038688803457 -0.039320054726 -0.039819893771 -0.040194111462 -0.040447571717 -0.04058425658 -0.04060787005 -0.04052559414 
-0.040335701514 -0.040041536635 -0.039647271919 -0.039157993947 -0.038579493203 -0.037917795937 -0.037178274762 -0.036364033302 -0.03547314525 
-0.034494884059 -0.03340572 -0.032167337695 -0.030731616445 -0.029058277702 -0.027147073721 -0.025078309807 -0.023044237243 -0.021340971363 
-0.020281479661 -0.02000469911 -0.020296827268 -0.014395574801 -0.014461470279 -0.014709708274 -0.015194791924 -0.015914095064 -0.016846289664 