# vtk DataFile Version 4.1
vtk output
ASCII
DATASET STRUCTURED_GRID
DIMENSIONS 51 51 1
POINTS 2601 float
0 0 0 0.02 0 0 0.04 0 0 
0.06 0 0 0.08 0 0 0.1 0 0 
0.12 0 0 0.14 0 0 0.16 0 0 
0.18 0 0 0.2 0 0 0.22 0 0 
0.24 0 0 0.26 0 0 0.28 0 0 
0.3 0 0 0.32 0 0 0.34 0 0 
0.36 0 0 0.38 0 0 0.4 0 0 
0.42 0 0 0.44 0 0 0.46 0 0 
0.48 0 0 0.5 0 0 0.52 0 0 
0.54 0 0 0.56 0 0 0.58 0 0 
0.6 0 0 0.62 0 0 0.64 0 0 
0.66 0 0 0.68 0 0 0.7 0 0 
0.72 0 0 0.74 0 0 0.76 0 0 
0.78 0 0 0.8 0 0 0.82 0 0 
0.84 0 0 0.86 0 0 0.88 0 0 
0.9 0 0 0.92 0 0 0.94 0 0 
0.96 0 0 0.98 0 0 1 0 0 
0 0.02 0 0.02 0.02 0 0.04 0.02 0 
0.06 0.02 0 0.08 0.02 0 0.1 0.02 0 
0.12 0.02 0 0.14 0.02 0 0.16 0.02 0 
0.18 0.02 0 0.2 0.02 0 0.22 0.02 0 
0.24 0.02 0 0.26 0.02 0 0.28 0.02 0 
0.3 0.02 0 0.32 0.02 0 0.34 0.02 0 
0.36 0.02 0 0.38 0.02 0 0.4 0.02 0 
0.42 0.02 0 0.44 0.02 0 0.46 0.02 0 
0.48 0.02 0 0.5 0.02 0 0.52 0.02 0 
0.54 0.02 0 0.56 0.02 0 0.58 0.02 0 
0.6 0.02 0 0.62 0.02 0 0.64 0.02 0 
0.66 0.02 0 0.68 0.02 0 0.7 0.02 0 
0.72 0.02 0 0.74 0.02 0 0.76 0.02 0 
0.78 0.02 0 0.8 0.02 0 0.82 0.02 0 
0.84 0.02 0 0.86 0.02 0 0.88 0.02 0 
0.9 0.02 0 0.92 0.02 0 0.94 0.02 0 
0.96 0.02 0 0.98 0.02 0 1 0.02 0 
0 0.04 0 0.02 0.04 0 0.04 0.04 0 
0.06 0.04 0 0.08 0.04 0 0.1 0.04 0 
0.12 0.04 0 0.14 0.04 0 0.16 0.04 0 
0.18 0.04 0 0.2 0.04 0 0.22 0.04 0 
0.24 0.04 0 0.26 0.04 0 0.28 0.04 0 
0.3 0.04 0 0.32 0.04 0 0.34 0.04 0 
0.36 0.04 0 0.38 0.04 0 0.4 0.04 0 
0.42 0.04 0 0.44 0.04 0 0.46 0.04 0 
0.48 0.04 0 0.5 0.04 0 0.52 0.04 0 
0.54 0.04 0 0.56 0.04 0 0.58 0.04 0 
0.6 0.04 0 0.62 0.04 0 0.64 0.04 0 
0.66 0.04 0 0.68 0.04 0 0.7 0.04 0 
0.72 0.04 0 0.74 0.04 0 0.76 0.04 0 
0.78 0.04 0 0.8 0.04 0 0.82 0.04 0 
0.84 0.04 0 0.86 0.04 0 0.88 0.04 0 
0.9 0.04 0 0.92 0.04 0 0.94 0.04 0 
0.96 0.04 0 0.98 0.04 0 1 0.04 0 
0 0.06 0 0.02 0.06 0 0.04 0.06 0 
0.06 0.06 0 0.08 0.06 0 0.1 0.06 0 
0.12 0.06 0 0.14 0.06 0 0.16 0.06 0 
0.18 0.06 0 0.2 0.06 0 0.22 0.06 0 
0.24 0.06 0 0.26 0.06 0 0.28 0.06 0 
0.3 0.06 0 0.32 0.06 0 0.34 0.06 0 
0.36 0.06 0 0.38 0.06 0 0.4 0.06 0 
0.42 0.06 0 0.44 0.06 0 0.46 0.06 0 
0.48 0.06 0 0.5 0.06 0 0.52 0.06 0 
0.54 0.06 0 0.56 0.06 0 0.58 0.06 0 
0.6 0.06 0 0.62 0.06 0 0.64 0.06 0 
0.66 0.06 0 0.68 0.06 0 0.7 0.06 0 
0.72 0.06 0 0.74 0.06 0 0.76 0.06 0 
0.78 0.06 0 0.8 0.06 0 0.82 0.06 0 
0.84 0.06 0 0.86 0.06 0 0.88 0.06 0 
0.9 0.06 0 0.92 0.06 0 0.94 0.06 0 
0.96 0.06 0 0.98 0.06 0 1 0.06 0 
0 0.08 0 0.02 0.08 0 0.04 0.08 0 
0.06 0.08 0 0.08 0.08 0 0.1 0.08 0 
0.12 0.08 0 0.14 0.08 0 0.16 0.08 0 
0.18 0.08 0 0.2 0.08 0 0.22 0.08 0 
0.24 0.08 0 0.26 0.08 0 0.28 0.08 0 
0.3 0.08 0 0.32 0.08 0 0.34 0.08 0 
0.36 0.08 0 0.38 0.08 0 0.4 0.08 0 
0.42 0.08 0 0.44 0.08 0 0.46 0.08 0 
0.48 0.08 0 0.5 0.08 0 0.52 0.08 0 
0.54 0.08 0 0.56 0.08 0 0.58 0.08 0 
0.6 0.08 0 0.62 0.08 0 0.64 0.08 0 
0.66 0.08 0 0.68 0.08 0 0.7 0.08 0 
0.72 0.08 0 0.74 0.08 0 0.76 0.08 0 
0.78 0.08 0 0.8 0.08 0 0.82 0.08 0 
0.84 0.08 0 0.86 0.08 0 0.88 0.08 0 
0.9 0.08 0 0.92 0.08 0 0.94 0.08 0 
0.96 0.08 0 0.98 0.08 0 1 0.08 0 
0 0.1 0 0.02 0.1 0 0.04 0.1 0 
0.06 0.1 0 0.08 0.1 0 0.1 0.1 0 
0.12 0.1 0 0.14 0.1 0 0.16 0.1 0 
0.18 0.1 0 0.2 0.1 0 0.22 0.1 0 
0.24 0.1 0 0.26 0.1 0 0.28 0.1 0 
0.3 0.1 0 0.32 0.1 0 0.34 0.1 0 
0.36 0.1 0 0.38 0.1 0 0.4 0.1 0 
0.42 0.1 0 0.44 0.1 0 0.46 0.1 0 
0.48 0.1 0 0.5 0.1 0 0.52 0.1 0 
0.54 0.1 0 0.56 0.1 0 0.58 0.1 0 
0.6 0.1 0 0.62 0.1 0 0.64 0.1 0 
0.66 0.1 0 0.68 0.1 0 0.7 0.1 0 
0.72 0.1 0 0.74 0.1 0 0.76 0.1 0 
0.78 0.1 0 0.8 0.1 0 0.82 0.1 0 
0.84 0.1 0 0.86 0.1 0 0.88 0.1 0 
0.9 0.1 0 0.92 0.1 0 0.94 0.1 0 
0.96 0.1 0 0.98 0.1 0 1 0.1 0 
0 0.12 0 0.02 0.12 0 0.04 0.12 0 
0.06 0.12 0 0.08 0.12 0 0.1 0.12 0 
0.12 0.12 0 0.14 0.12 0 0.16 0.12 0 
0.18 0.12 0 0.2 0.12 0 0.22 0.12 0 
0.24 0.12 0 0.26 0.12 0 0.28 0.12 0 
0.3 0.12 0 0.32 0.12 0 0.34 0.12 0 
0.36 0.12 0 0.38 0.12 0 0.4 0.12 0 
0.42 0.12 0 0.44 0.12 0 0.46 0.12 0 
0.48 0.12 0 0.5 0.12 0 0.52 0.12 0 
0.54 0.12 0 0.56 0.12 0 0.58 0.12 0 
0.6 0.12 0 0.62 0.12 0 0.64 0.12 0 
0.66 0.12 0 0.68 0.12 0 0.7 0.12 0 
0.72 0.12 0 0.74 0.12 0 0.76 0.12 0 
0.78 0.12 0 0.8 0.12 0 0.82 0.12 0 
0.84 0.12 0 0.86 0.12 0 0.88 0.12 0 
0.9 0.12 0 0.92 0.12 0 0.94 0.12 0 
0.96 0.12 0 0.98 0.12 0 1 0.12 0 
0 0.14 0 0.02 0.14 0 0.04 0.14 0 
0.06 0.14 0 0.08 0.14 0 0.1 0.14 0 
0.12 0.14 0 0.14 0.14 0 0.16 0.14 0 
0.18 0.14 0 0.2 0.14 0 0.22 0.14 0 
0.24 0.14 0 0.26 0.14 0 0.28 0.14 0 
0.3 0.14 0 0.32 0.14 0 0.34 0.14 0 
0.36 0.14 0 0.38 0.14 0 0.4 0.14 0 
0.42 0.14 0 0.44 0.14 0 0.46 0.14 0 
0.48 0.14 0 0.5 0.14 0 0.52 0.14 0 
0.54 0.14 0 0.56 0.14 0 0.58 0.14 0 
0.6 0.14 0 0.62 0.14 0 0.64 0.14 0 
0.66 0.14 0 0.68 0.14 0 0.7 0.14 0 
0.72 0.14 0 0.74 0.14 0 0.76 0.14 0 
0.78 0.14 0 0.8 0.14 0 0.82 0.14 0 
0.84 0.14 0 0.86 0.14 0 0.88 0.14 0 
0.9 0.14 0 0.92 0.14 0 0.94 0.14 0 
0.96 0.14 0 0.98 0.14 0 1 0.14 0 
0 0.16 0 0.02 0.16 0 0.04 0.16 0 
0.06 0.16 0 0.08 0.16 0 0.1 0.16 0 
0.12 0.16 0 0.14 0.16 0 0.16 0.16 0 
0.18 0.16 0 0.2 0.16 0 0.22 0.16 0 
0.24 0.16 0 0.26 0.16 0 0.28 0.16 0 
0.3 0.16 0 0.32 0.16 0 0.34 0.16 0 
0.36 0.16 0 0.38 0.16 0 0.4 0.16 0 
0.42 0.16 0 0.44 0.16 0 0.46 0.16 0 
0.48 0.16 0 0.5 0.16 0 0.52 0.16 0 
0.54 0.16 0 0.56 0.16 0 0.58 0.16 0 
0.6 0.16 0 0.62 0.16 0 0.64 0.16 0 
0.66 0.16 0 0.68 0.16 0 0.7 0.16 0 
0.72 0.16 0 0.74 0.16 0 0.76 0.16 0 
0.78 0.16 0 0.8 0.16 0 0.82 0.16 0 
0.84 0.16 0 0.86 0.16 0 0.88 0.16 0 
0.9 0.16 0 0.92 0.16 0 0.94 0.16 0 
0.96 0.16 0 0.98 0.16 0 1 0.16 0 
0 0.18 0 0.02 0.18 0 0.04 0.18 0 
0.06 0.18 0 0.08 0.18 0 0.1 0.18 0 
0.12 0.18 0 0.14 0.18 0 0.16 0.18 0 
0.18 0.18 0 0.2 0.18 0 0.22 0.18 0 
0.24 0.18 0 0.26 0.18 0 0.28 0.18 0 
0.3 0.18 0 0.32 0.18 0 0.34 0.18 0 
0.36 0.18 0 0.38 0.18 0 0.4 0.18 0 
0.42 0.18 0 0.44 0.18 0 0.46 0.18 0 
0.48 0.18 0 0.5 0.18 0 0.52 0.18 0 
0.54 0.18 0 0.56 0.18 0 0.58 0.18 0 
0.6 0.18 0 0.62 0.18 0 0.64 0.18 0 
0.66 0.18 0 0.68 0.18 0 0.7 0.18 0 
0.72 0.18 0 0.74 0.18 0 0.76 0.18 0 
0.78 0.18 0 0.8 0.18 0 0.82 0.18 0 
0.84 0.18 0 0.86 0.18 0 0.88 0.18 0 
0.9 0.18 0 0.92 0.18 0 0.94 0.18 0 
0.96 0.18 0 0.98 0.18 0 1 0.18 0 
0 0.2 0 0.02 0.2 0 0.04 0.2 0 
0.06 0.2 0 0.08 0.2 0 0.1 0.2 0 
0.12 0.2 0 0.14 0.2 0 0.16 0.2 0 
0.18 0.2 0 0.2 0.2 0 0.22 0.2 0 
0.24 0.2 0 0.26 0.2 0 0.28 0.2 0 
0.3 0.2 0 0.32 0.2 0 0.34 0.2 0 
0.36 0.2 0 0.38 0.2 0 0.4 0.2 0 
0.42 0.2 0 0.44 0.2 0 0.46 0.2 0 
0.48 0.2 0 0.5 0.2 0 0.52 0.2 0 
0.54 0.2 0 0.56 0.2 0 0.58 0.2 0 
0.6 0.2 0 0.62 0.2 0 0.64 0.2 0 
0.66 0.2 0 0.68 0.2 0 0.7 0.2 0 
0.72 0.2 0 0.74 0.2 0 0.76 0.2 0 
0.78 0.2 0 0.8 0.2 0 0.82 0.2 0 
0.84 0.2 0 0.86 0.2 0 0.88 0.2 0 
0.9 0.2 0 0.92 0.2 0 0.94 0.2 0 
0.96 0.2 0 0.98 0.2 0 1 0.2 0 
0 0.22 0 0.02 0.22 0 0.04 0.22 0 
0.06 0.22 0 0.08 0.22 0 0.1 0.22 0 
0.12 0.22 0 0.14 0.22 0 0.16 0.22 0 
0.18 0.22 0 0.2 0.22 0 0.22 0.22 0 
0.24 0.22 0 0.26 0.22 0 0.28 0.22 0 
0.3 0.22 0 0.32 0.22 0 0.34 0.22 0 
0.36 0.22 0 0.38 0.22 0 0.4 0.22 0 
0.42 0.22 0 0.44 0.22 0 0.46 0.22 0 
0.48 0.22 0 0.5 0.22 0 0.52 0.22 0 
0.54 0.22 0 0.56 0.22 0 0.58 0.22 0 
0.6 0.22 0 0.62 0.22 0 0.64 0.22 0 
0.66 0.22 0 0.68 0.22 0 0.7 0.22 0 
0.72 0.22 0 0.74 0.22 0 0.76 0.22 0 
0.78 0.22 0 0.8 0.22 0 0.82 0.22 0 
0.84 0.22 0 0.86 0.22 0 0.88 0.22 0 
0.9 0.22 0 0.92 0.22 0 0.94 0.22 0 
0.96 0.22 0 0.98 0.22 0 1 0.22 0 
0 0.24 0 0.02 0.24 0 0.04 0.24 0 
0.06 0.24 0 0.08 0.24 0 0.1 0.24 0 
0.12 0.24 0 0.14 0.24 0 0.16 0.24 0 
0.18 0.24 0 0.2 0.24 0 0.22 0.24 0 
0.24 0.24 0 0.26 0.24 0 0.28 0.24 0 
0.3 0.24 0 0.32 0.24 0 0.34 0.24 0 
0.36 0.24 0 0.38 0.24 0 0.4 0.24 0 
0.42 0.24 0 0.44 0.24 0 0.46 0.24 0 
0.48 0.24 0 0.5 0.24 0 0.52 0.24 0 
0.54 0.24 0 0.56 0.24 0 0.58 0.24 0 
0.6 0.24 0 0.62 0.24 0 0.64 0.24 0 
0.66 0.24 0 0.68 0.24 0 0.7 0.24 0 
0.72 0.24 0 0.74 0.24 0 0.76 0.24 0 
0.78 0.24 0 0.8 0.24 0 0.82 0.24 0 
0.84 0.24 0 0.86 0.24 0 0.88 0.24 0 
0.9 0.24 0 0.92 0.24 0 0.94 0.24 0 
0.96 0.24 0 0.98 0.24 0 1 0.24 0 
0 0.26 0 0.02 0.26 0 0.04 0.26 0 
0.06 0.26 0 0.08 0.26 0 0.1 0.26 0 
0.12 0.26 0 0.14 0.26 0 0.16 0.26 0 
0.18 0.26 0 0.2 0.26 0 0.22 0.26 0 
0.24 0.26 0 0.26 0.26 0 0.28 0.26 0 
0.3 0.26 0 0.32 0.26 0 0.34 0.26 0 
0.36 0.26 0 0.38 0.26 0 0.4 0.26 0 
0.42 0.26 0 0.44 0.26 0 0.46 0.26 0 
0.48 0.26 0 0.5 0.26 0 0.52 0.26 0 
0.54 0.26 0 0.56 0.26 0 0.58 0.26 0 
0.6 0.26 0 0.62 0.26 0 0.64 0.26 0 
0.66 0.26 0 0.68 0.26 0 0.7 0.26 0 
0.72 0.26 0 0.74 0.26 0 0.76 0.26 0 
0.78 0.26 0 0.8 0.26 0 0.82 0.26 0 
0.84 0.26 0 0.86 0.26 0 0.88 0.26 0 
0.9 0.26 0 0.92 0.26 0 0.94 0.26 0 
0.96 0.26 0 0.98 0.26 0 1 0.26 0 
0 0.28 0 0.02 0.28 0 0.04 0.28 0 
0.06 0.28 0 0.08 0.28 0 0.1 0.28 0 
0.12 0.28 0 0.14 0.28 0 0.16 0.28 0 
0.18 0.28 0 0.2 0.28 0 0.22 0.28 0 
0.24 0.28 0 0.26 0.28 0 0.28 0.28 0 
0.3 0.28 0 0.32 0.28 0 0.34 0.28 0 
0.36 0.28 0 0.38 0.28 0 0.4 0.28 0 
0.42 0.28 0 0.44 0.28 0 0.46 0.28 0 
0.48 0.28 0 0.5 0.28 0 0.52 0.28 0 
0.54 0.28 0 0.56 0.28 0 0.58 0.28 0 
0.6 0.28 0 0.62 0.28 0 0.64 0.28 0 
0.66 0.28 0 0.68 0.28 0 0.7 0.28 0 
0.72 0.28 0 0.74 0.28 0 0.76 0.28 0 
0.78 0.28 0 0.8 0.28 0 0.82 0.28 0 
0.84 0.28 0 0.86 0.28 0 0.88 0.28 0 
0.9 0.28 0 0.92 0.28 0 0.94 0.28 0 
0.96 0.28 0 0.98 0.28 0 1 0.28 0 
0 0.3 0 0.02 0.3 0 0.04 0.3 0 
0.06 0.3 0 0.08 0.3 0 0.1 0.3 0 
0.12 0.3 0 0.14 0.3 0 0.16 0.3 0 
0.18 0.3 0 0.2 0.3 0 0.22 0.3 0 
0.24 0.3 0 0.26 0.3 0 0.28 0.3 0 
0.3 0.3 0 0.32 0.3 0 0.34 0.3 0 
0.36 0.3 0 0.38 0.3 0 0.4 0.3 0 
0.42 0.3 0 0.44 0.3 0 0.46 0.3 0 
0.48 0.3 0 0.5 0.3 0 0.52 0.3 0 
0.54 0.3 0 0.56 0.3 0 0.58 0.3 0 
0.6 0.3 0 0.62 0.3 0 0.64 0.3 0 
0.66 0.3 0 0.68 0.3 0 0.7 0.3 0 
0.72 0.3 0 0.74 0.3 0 0.76 0.3 0 
0.78 0.3 0 0.8 0.3 0 0.82 0.3 0 
0.84 0.3 0 0.86 0.3 0 0.88 0.3 0 
0.9 0.3 0 0.92 0.3 0 0.94 0.3 0 
0.96 0.3 0 0.98 0.3 0 1 0.3 0 
0 0.32 0 0.02 0.32 0 0.04 0.32 0 
0.06 0.32 0 0.08 0.32 0 0.1 0.32 0 
0.12 0.32 0 0.14 0.32 0 0.16 0.32 0 
0.18 0.32 0 0.2 0.32 0 0.22 0.32 0 
0.24 0.32 0 0.26 0.32 0 0.28 0.32 0 
0.3 0.32 0 0.32 0.32 0 0.34 0.32 0 
0.36 0.32 0 0.38 0.32 0 0.4 0.32 0 
0.42 0.32 0 0.44 0.32 0 0.46 0.32 0 
0.48 0.32 0 0.5 0.32 0 0.52 0.32 0 
0.54 0.32 0 0.56 0.32 0 0.58 0.32 0 
[...]
CELL_DATA 2500
FIELD FieldData 2
pressure 1 2500 double
-0.0056604056581 -0.0056490753695 -0.0056716004806 -0.0057346476741 -0.0058326320562 -0.0059570614033 -0.0061022233711 -0.0062659969424 -0.0064495260727 
-0.0066550853581 -0.0068860401162 -0.0071442996145 -0.0074290472221 -0.0077402954766 -0.0080737483469 -0.0084228337171 -0.0087777311079 -0.0091252714633 
-0.0094494474482 -0.0097321860413 -0.0099542064306 -0.010095838667 -0.010137756837 -0.010061724688 -0.0098514806559 -0.0094938136961 -0.008979821621 
-0.0083063257128 -0.0074774476951 -0.0065063398378 -0.005420297632 -0.0042789350641 -0.0031254267924 -0.0020151535616 -0.0010108200608 -0.00017745675706 
0.00042445666641 0.00074781883328 0.00076894623973 0.00049730959468 1.0469159251e-05 -0.00061019557012 -0.0012661364537 -0.0018620633338 -0.0023333271023 
-0.0026660160519 -0.002872125738 -0.0029722946871 -0.0029880831608 -0.0029473447014 -0.0056727693254 -0.0056600762513 -0.0056844566205 -0.0057460643131 
-0.0058386883054 -0.0059545305171 -0.006088802313 -0.0062396926104 -0.0064093796332 -0.0065991806719 -0.0068143696666 -0.0070581413603 -0.0073300496923 
-0.0076299833648 -0.0079546416887 -0.0082976155149 -0.0086492899539 -0.0089970093269 -0.0093254797856 -0.0096172925877 -0.0098534905857 -0.010014179607 
-0.01007928993 -0.010029535846 -0.0098475372831 -0.0095190695697 -0.0090343399368 -0.0083891796128 -0.0075860537329 -0.0066353088101 -0.0056015342523 
-0.004497474233 -0.0033754104283 -0.0022924783118 -0.0013110967056 -0.00049525332173 9.5978402969e-05 0.00041719297547 0.00044698082702 0.00019847605883 
-0.0002730171485 -0.00083677236655 -0.00143526698 -0.0019730850217 -0.0023886519265 -0.0026742870333 -0.0028476253017 -0.0029328723153 -0.0029501168152 
-0.0029083319209 -0.005650578507 -0.0056377938603 -0.0056670781028 -0.0057328224249 -0.0058253763832 -0.0059351099735 -0.0060594610871 -0.0061949148422 
-0.0063487818864 -0.0065252138323 -0.0067291089302 -0.0069649789476 -0.0072347488333 -0.007538168541 -0.0078719665011 -0.0082296607274 -0.0086016223653 
-0.0089752491966 -0.0093351628859 -0.0096634677013 -0.0099401767259 -0.01014393248 -0.010253032116 -0.010246656449 -0.010106209719 -0.0098166053958 
-0.0093673421055 -0.0087531674427 -0.0079735402188 -0.0070787053695 -0.0060722040563 -0.0049907957742 -0.0038836787337 -0.002807505557 -0.0018243385478 
-0.00099778016701 -0.00038675609103 -3.7010445608e-05 2.9130340121e-05 -0.00017665202881 -0.00060063239873 -0.0011466926357 -0.0017040604451 -0.002208994752 
-0.0025838114084 -0.0028163863701 -0.0029446368489 -0.0029982342926 -0.0029990228122 -0.0029476354542 -0.0055843356991 -0.0055796354188 -0.0056194945085 
-0.0056938491234 -0.0057895113876 -0.0058957489789 -0.0060107778461 -0.0061360074554 -0.0062803707639 -0.0064518113906 -0.0066576643282 -0.0069035870519 
-0.0071922748552 -0.0075232543816 -0.0078927638452 -0.0082937346111 -0.0087158479996 -0.0091455230084 -0.0095659435834 -0.0099573253964 -0.010297570421 
-0.010563313808 -0.01073124745 -0.010779561252 -0.010689286929 -0.010445423223 -0.010037883017 -0.0094623959539 -0.0087278761939 -0.0078687549423 
-0.0068876757593 -0.0058231608825 -0.0047223261414 -0.0036400700504 -0.0026369821412 -0.0017755935682 -0.0011145422341 -0.00070057989431 -0.00055890383162 
-0.00068324352364 -0.0010287414838 -0.0015128203617 -0.002030242579 -0.0024968850002 -0.002852627859 -0.0030494020108 -0.0031382462671 -0.0031595739038 
-0.0031417344667 -0.0030885935556 -0.0054707316891 -0.0054823314787 -0.0055381738531 -0.0056235053701 -0.005723859743 -0.0058308739135 -0.0059437632958 
-0.0060697036719 -0.006219928352 -0.0064057678353 -0.0066365733879 -0.0069185273823 -0.0072540999401 -0.007642005488 -0.0080773273775 -0.0085515971801 
-0.0090526984739 -0.0095647904612 -0.010068477608 -0.010541398966 -0.010959269519 -0.011297242565 -0.011531392091 -0.011640063726 -0.011604989676 
-0.011412201547 -0.011052747271 -0.010523126142 -0.0098447975722 -0.0090167514576 -0.0080610151645 -0.0070116247256 -0.0059121995555 -0.0048144597338 
-0.0037761493877 -0.0028576185578 -0.0021165938415 -0.0016009910636 -0.001340170378 -0.0013359543745 -0.0015560734773 -0.0019340939513 -0.0023797449239 
-0.0027996340101 -0.0031120639826 -0.0033082236288 -0.0033781413294 -0.0033832478062 -0.0033575760855 -0.0033126542208 -0.0053094882423 -0.0053442063579 
-0.0054183135683 -0.005515378011 -0.00562610157 -0.0057410951567 -0.0058653784364 -0.0060102756602 -0.0061897058319 -0.0064167389266 -0.006701214618 
-0.0070488356811 -0.0074609838656 -0.0079348775567 -0.0084637584148 -0.0090368254518 -0.0096391637563 -0.010251898129 -0.010852758931 -0.011417119403 
-0.011919358939 -0.012334323016 -0.012638624042 -0.012811710889 -0.012836741092 -0.012701327 -0.012398294669 -0.011926616623 -0.011298590472 
-0.010509932701 -0.0095835178525 -0.0085505014105 -0.007450535313 -0.0063310323 -0.0052455832331 -0.0042511678991 -0.0034037830281 -0.0027523196792 
-0.0023309814661 -0.0021512965894 -0.0021957858526 -0.0024162112207 -0.0027390590499 -0.0030787876588 -0.0033572477553 -0.0035331875015 -0.0036164405892 
-0.0036324352301 -0.0036164360099 -0.0035880252476 -0.005105539414 -0.0051679849049 -0.0052611388413 -0.0053749645762 -0.0055000004288 -0.0056358257608 
-0.0057909206255 -0.0059791254485 -0.0062154958214 -0.0065129300999 -0.0068803438915 -0.0073220225933 -0.0078376086014 -0.0084222710941 -0.0090666687909 
-0.0097569313761 -0.010474859342 -0.011198526433 -0.011903351748 -0.012563455122 -0.013153068575 -0.013647757741 -0.014025401295 -0.01426696559 
-0.014357162671 -0.014285158377 -0.014045457066 -0.013639083786 -0.013063943948 -0.012320126367 -0.011427839043 -0.010414529771 -0.0093151026702 
-0.0081716259178 -0.0070323458818 -0.0059496952008 -0.0049769582796 -0.0041634015677 -0.0035480180268 -0.0031526135263 -0.0029757003756 -0.0029892686496 
-0.0031405737209 -0.0033604773716 -0.0035794189988 -0.0037507437958 -0.0038519525237 -0.0038880035354 -0.0038979315971 -0.0038915008631 -0.0048752833261 
-0.0049684387988 -0.0050803267349 -0.0052123105135 -0.0053630564928 -0.0055371165691 -0.005745531168 -0.0060028130352 -0.0063231524382 -0.0067178187227 
-0.0071938078125 -0.0077533582677 -0.0083938953656 -0.0091078781126 -0.0098827730256 -0.010701298177 -0.011542093799 -0.012380872858 -0.013191797649 
-0.013948855321 -0.014627008844 -0.015203078573 -0.015656407589 -0.015969421678 -0.016128231341 -0.016123352226 -0.01595057622 -0.015612018673 
-0.015093884962 -0.014399787254 -0.013546952381 -0.012558566286 -0.01146410872 -0.010299449197 -0.0091064718289 -0.0079319376785 -0.0068252716932 
-0.0058350504792 -0.005004204498 -0.0043643487832 -0.0039301627106 -0.0036952037735 -0.0036307721274 -0.0036893404819 -0.0038136094143 -0.003950358683 
-0.0040625826503 -0.0041506957543 -0.0041984446153 -0.0042166043334 -0.0046463742631 -0.0047680229073 -0.0048988797955 -0.0050561745341 -0.0052460433604 
-0.0054766235399 -0.0057597540232 -0.0061086885862 -0.0065353869217 -0.0070486197099 -0.0076528965671 -0.0083479723651 -0.0091283878059 -0.0099832791873 
-0.010896582909 -0.011847742095 -0.012812947334 -0.013766564543 -0.014682516661 -0.01553540032 -0.016301289431 -0.016958321333 -0.017487190313 
-0.017871658337 -0.018099152288 -0.018161435444 -0.018055340238 -0.017783558547 -0.017324611479 -0.016684116454 -0.015876218568 -0.014919558502 
-0.013837787202 -0.012660010472 -0.011420973794 -0.010160740115 -0.0089235855078 -0.0077558852124 -0.0067028890488 -0.005804514683 -0.0050905984965 
-0.0045763618566 -0.0042590694554 -0.0041169517715 -0.0041114791919 -0.0041941360396 -0.0043188150316 -0.0044445468524 -0.0045289740113 -0.004572005367 
-0.0044549992623 -0.0046000667245 -0.0047535516197 -0.0049446681711 -0.0051865175386 -0.0054892553461 -0.0058637674792 -0.0063208827693 -0.0068696733115 
-0.007516000711 -0.0082615400614 -0.0091028831204 -0.01003101163 -0.011031326861 -0.012084291882 -0.013166728146 -0.014253292651 -0.015317901756 
-0.016334860579 -0.017279623867 -0.018129357369 -0.018863406476 -0.019463759172 -0.019915574343 -0.020207716553 -0.020333249809 -0.020289916979 
-0.020080622004 -0.019680598905 -0.019096113895 -0.018338239784 -0.017421070749 -0.016362367531 -0.015184259187 -0.013913865892 -0.012583672274 
-0.011231456573 -0.0098995604195 -0.0086333065891 -0.0074784644238 -0.0064777899493 -0.0056668062197 -0.0050690911164 -0.0046914389507 -0.0045195212252 
-0.0045155592632 -0.0046215058848 -0.0047695842637 -0.0049027293115 -0.004973556953 -0.004342166846 -0.0045079581128 -0.0046859948456 -0.004917915959 
-0.0052213573606 -0.0056066633009 -0.0060827354417 -0.0066575609277 -0.0073371297016 -0.0081242025867 -0.009016996949 -0.01000822334 -0.011084816596 
-0.012228384325 -0.013416479116 -0.014624090893 -0.01582511668 -0.016993533045 -0.018104152881 -0.019133219806 -0.020058894663 -0.020861730231 
-0.021525193083 -0.022036122445 -0.022385052688 -0.022566452143 -0.022578880727 -0.022425150561 -0.022081313105 -0.021553412678 -0.020849634436 
-0.019979814413 -0.018956117944 -0.01779384321 -0.016512312394 -0.015135792935 -0.013694325811 -0.012224279377 -0.01076840598 -0.0093751327957 
-0.0080967732571 -0.0069862892008 -0.0060921426486 -0.005450738986 -0.00507629349 -0.0049495327337 -0.0050111337475 -0.005171786106 -0.0053452451928 
-0.0054430203946 -0.0043469111936 -0.0045291234708 -0.0047333025628 -0.0050103974083 -0.0053803592669 -0.005852652618 -0.0064339520849 -0.0071294378049 
-0.0079420302617 -0.0088709035656 -0.0099101201735 -0.011047999215 -0.012267275113 -0.013546247033 -0.014860230654 -0.016183048378 -0.017488244933 
-0.018749869214 -0.019943135678 -0.021044979686 -0.022034595416 -0.022894015317 -0.023608559477 -0.024167069089 -0.024561989045 -0.024789266828 
-0.024848182291 -0.024741268688 -0.024448697747 -0.023976005809 -0.023328849164 -0.02251335779 -0.021536692519 -0.020407797594 -0.019138405818 
-0.017744311056 -0.016246885355 -0.014674743063 -0.013065334976 -0.011466110055 -0.0099346976697 -0.0085372940586 -0.007344095088 -0.0064203502009 
-0.005811865215 -0.0055257116415 -0.0055127926343 -0.0056698441271 -0.0058724469459 -0.005997420557 -0.0044973006514 -0.0046920021895 -0.0049226360572 
-0.0052459227051 -0.0056825793103 -0.0062409344762 -0.0069256402514 -0.007739293963 -0.0086814541914 -0.0097471031779 -0.010925679799 -0.012200921393 
-0.013551812309 -0.014953946047 -0.016380990637 -0.017805930328 -0.019201880347 -0.020542823042 -0.021804272029 -0.02296391332 -0.024002296893 
-0.024903346162 -0.025654582721 -0.026247142835 -0.026675506683 -0.026937097325 -0.027031909113 -0.026962211942 -0.026714441629 -0.026293789093 
-0.025703876852 -0.024947833053 -0.024028634725 -0.022949698656 -0.02171581397 -0.020334543178 -0.01881817863 -0.017186241211 -0.015468382333 
-0.013707347159 -0.011961322833 -0.010304512599 -0.0088241637137 -0.0076116943357 -0.0067455259535 -0.006265035968 -0.0061413241597 -0.0062647515342 
-0.0064767032671 -0.0066455431649 -0.0048096161204 -0.0050128393907 -0.0052683709116 -0.0056356253612 -0.0061353100625 -0.0067747763869 -0.0075570121663 
-0.0084819367623 -0.0095452779421 -0.01073743756 -0.012043070799 -0.013441794646 -0.014909442201 -0.01641946472 -0.017944178368 -0.019455602254 
-0.020926260308 -0.022329968421 -0.023642605238 -0.024842957496 -0.025913354637 -0.026839948668 -0.027612747548 -0.028225271267 -0.028674033176 
-0.028957975109 -0.029077902381 -0.029035995318 -0.02882587057 -0.028452675914 -0.02791851632 -0.027224311225 -0.026369876838 -0.025354235815 
-0.024176332128 -0.022836338807 -0.021337725766 -0.019690229747 -0.017913747856 -0.01604290647 -0.014131616677 -0.012256262085 -0.01051525739 
-0.0090217356004 -0.0078856392485 -0.0071828926445 -0.0069156345529 -0.0069840515927 -0.0072118084758 -0.007411677093 -0.0052872983855 -0.0054947123311 
-0.0057717608599 -0.0061783557561 -0.006734858387 -0.0074479190801 -0.0083188807201 -0.0093446358647 -0.010516769297 -0.0118210173 -0.013237747576 
-0.014743114787 -0.01631039092 -0.017911205189 -0.019516393108 -0.02109684564 -0.02262441183 -0.024072812146 -0.025418662693 -0.026642287428 
-0.027728104556 -0.028664747188 -0.029444736435 -0.030063928512 -0.030520867188 -0.030816061028 -0.030951266605 -0.030928812967 -0.030749350024 
-0.030418048776 -0.029936013678 -0.02930279614 -0.028516176573 -0.02757216797 -0.026465390592 -0.025190030005 -0.023741687293 -0.022120436144 
-0.020335290087 -0.018410030928 -0.016389846714 -0.014347379747 -0.012385581873 -0.010633368298 -0.0092289906966 -0.00828673397 -0.0078481477214 
-0.0078359121196 -0.0080603335114 -0.0082954511216 -0.0059216301369 -0.0061285158872 -0.0064225021858 -0.0068624881253 -0.0074683352244 -0.0082459412074 
-0.009194679605 -0.010308128526 -0.011573712044 -0.012973020858 -0.014482885987 -0.016076660725 -0.01772545206 -0.019398986241 -0.021066482479 
-0.022697652874 -0.024263759206 -0.025738825064 -0.027100659904 -0.028331403925 -0.02941779253 -0.030350920077 -0.031125717077 -0.031740302945 
-0.032195203415 -0.032492541855 -0.032635149665 -0.032625412989 -0.032470434725 -0.032174926056 -0.031739504357 -0.031163159133 -0.030442798972 
-0.029572938832 -0.028545623385 -0.027350873618 -0.025978041611 -0.024418530799 -0.022670345816 -0.020744720912 -0.018674522472 -0.016523153262 
-0.014391225226 -0.012416389388 -0.010759926267 -0.0095733971253 -0.0089430189913 -0.0088256554397 -0.0090298650583 -0.0092972390301 -0.0066937190815 
-0.006895329251 -0.0072012653228 -0.0076683778387 -0.0083156649541 -0.0091478159282 -0.01016187281 -0.011348075647 -0.012690185976 -0.01416647786 
-0.01575100094 -0.017414804656 -0.019126843172 -0.02085485698 -0.02256644728 -0.024230270781 -0.025817428944 -0.027302729684 -0.028665437154 
-0.029889728631 -0.030964613385 -0.031883503786 -0.032643618304 -0.03324520426 -0.033690697178 -0.033983800206 -0.03412865412 -0.034126261962 
-0.033990958241 -0.033725041163 -0.033329347198 -0.032803077166 -0.032143325568 -0.031344502809 -0.03039784329 -0.029291258882 -0.028009958618 
-0.026538466589 -0.02486475597 -0.022987079099 -0.020923597743 -0.018723881739 -0.01647962314 -0.014329554733 -0.012450992462 -0.011028924214 
-0.010196295102 -0.0099538356391 -0.010121541405 -0.010413413551 -0.0075773086632 -0.0077693461801 -0.0080825409367 -0.0085707896672 -0.0092515102138 
-0.010127620525 -0.011193677086 -0.012436979217 -0.013838467873 -0.015373940681 -0.017015258055 -0.018731300362 -0.02048885362 -0.022253730937 
-0.023992094229 -0.025671996766 -0.027264896021 -0.028746646038 -0.030098187207 -0.031305686015 -0.032360267595 -0.033257525913 -0.033996804404 
-0.034580327389 -0.035012177321 -0.035297358724 -0.035440838727 -0.035444652675 -0.035324301565 -0.035081804766 -0.034718301565 -0.03423366468 
-0.033625920708 -0.032890499662 -0.032019381589 -0.031000355824 -0.029816833059 -0.028448893597 -0.026876483765 -0.025085771403 -0.023079304803 
-0.020889562895 -0.018593580381 -0.016323510049 -0.014264565748 -0.012628968211 -0.011595329191 -0.011215320976 -0.011334408202 -0.011649012714 
-0.0085418219546 -0.0087208516109 -0.0090372417736 -0.0095409900493 -0.010247125762 -0.01115638351 -0.012261019887 -0.01354614278 -0.014990745794 
-0.016568804338 -0.018250246424 -0.020001838574 -0.021788316548 -0.023573809849 -0.025323515564 -0.027005444826 -0.028591694204 -0.030059384803 
-0.031391094729 -0.032574818868 -0.033603666236 -0.034475274316 -0.035190953954 -0.035754584682 -0.03617158394 -0.036447818866 -0.03658872804 
-0.036597817775 -0.036488978893 -0.036264427586 -0.035925798987 -0.035473885703 -0.034908089319 -0.034225584605 -0.033420236334 -0.03248141278 
-0.031393028583 -0.030133454993 -0.028677387574 -0.02700106152 -0.025092079023 -0.022964199449 -0.020675396012 -0.018344205068 -0.016155123596 
-0.014339585142 -0.013117718316 -0.012595492956 -0.012655248769 -0.012983312005 -0.0095552241463 -0.0097187630698 -0.010034770731 -0.010548571875 
-0.011272163778 -0.012203969489 -0.013334466309 -0.014647380654 -0.016120420695 -0.017726083919 -0.019432483207 -0.02120443117 -0.023004916729 
-0.024796885999 -0.026545178244 -0.028218092365 -0.029788578484 -0.031235010715 -0.032541439743 -0.033697563291 -0.034698375861 -0.035543409154 
-0.036235610731 -0.036780207471 -0.037183438704 -0.03745153084 -0.037590079971 -0.037603941355 -0.037504058711 -0.037292926854 -0.036972712508 
-0.036545170457 -0.036011192517 -0.035370016972 -0.034618079229 -0.033747557297 -0.032744783464 -0.031589076752 -0.030253064263 -0.028706157961 
-0.026923152213 -0.024899238837 -0.022670649732 -0.020336474471 -0.018072084186 -0.016118905991 -0.014731682252 -0.014070263365 -0.014062873404 
-0.014395880097 -0.010586374124 -0.010732494348 -0.01104462351 -0.011563043242 -0.012296361693 -0.013240860665 -0.014385848452 -0.015714256786 
-0.017202877242 -0.018822884179 -0.020540746411 -0.02231966493 -0.024121408936 -0.025908384898 -0.02764547329 -0.029301474714 -0.030850217915 
-0.032271160009 -0.033549702548 -0.034677179138 -0.035650329547 -0.036470273404 -0.037141319011 -0.037669520528 -0.03806140967 -0.038323218027 
-0.038460322314 -0.038478657412 -0.038385864386 -0.038184637587 -0.037877553693 -0.037467195928 -0.036955850001 -0.036344813911 -0.035633331151 
-0.034817044648 -0.033886040618 -0.032822802051 -0.031600983769 -0.030186804681 -0.02854558833 -0.026655836199 -0.024531290496 -0.022247443985 
-0.019963021334 -0.017919795398 -0.016398150026 -0.015607985886 -0.015529414727 -0.015859760722 -0.011606818431 -0.011733017204 -0.012037532299 
-0.012555180481 -0.013291069158 -0.01423962581 -0.015389395369 -0.016722818006 -0.018215916544 -0.019838686037 -0.02155629937 -0.023330888723 
-0.025123670537 -0.026896990012 -0.028616007678 -0.030250095472 -0.03177380076 -0.033167544033 -0.034418024309 -0.035518082223 -0.036465925384 
-0.037264009046 -0.037917505507 -0.038432783094 -0.038816373043 -0.039074142055 -0.039210974674 -0.039233366868 -0.039146354129 -0.038952415937 
-0.038654345694 -0.038255382691 -0.037758972775 -0.037168267445 -0.036485188819 -0.035708989106 -0.034834177447 -0.033847894377 -0.032727422504 
-0.031439436742 -0.029943856338 -0.028205813809 -0.026217748896 -0.024029407295 -0.021776840017 -0.01969289497 -0.018073394045 -0.017171569957 
-0.017022007074 -0.017343464522 -0.012592637182 -0.012692548358 -0.012986262569 -0.013498197634 -0.014230488844 -0.015175902962 -0.016322394744 
-0.017651978451 -0.019139983085 -0.020755540584 -0.022463061984 -0.024224284041 -0.026000424464 -0.027754062276 -0.029450750785 -0.031060312605 
-0.032557902617 -0.033924852798 -0.035149050209 -0.036224584215 -0.037150880544 -0.037931262129 -0.038571260964 -0.039077317171 -0.039455629578 
-0.039711566835 -0.039849560061 -0.03987470254 -0.039792842773 -0.03960429228 -0.039312117397 -0.038920049792 -0.038432488631 -0.037854114905 
-0.037189178077 -0.036440272883 -0.035606377491 -0.034680026609 -0.033643945734 -0.032468420713 -0.031112200778 -0.029531364375 -0.027699948687 
-0.025641896939 -0.023466497865 -0.021389525573 -0.019711690294 -0.018720643606 -0.018504568183 -0.018812662459 -0.013517077307 -0.013594272873 
-0.013866815005 -0.014368829529 -0.015092560219 -0.016028977835 -0.017165519874 -0.018483670836 -0.019958314227 -0.021558219234 -0.023247691277 
-0.024988686586 -0.026742795713 -0.028472989497 -0.030145156291 -0.031729489886 -0.033201705973 -0.034543971637 -0.035745118526 -0.036800219696 
-0.037709480037 -0.038476570566 -0.039107151127 -0.039607417083 -0.039983092216 -0.04023899332 -0.040379007855 -0.040406495461 -0.040328969051 
-0.040144220949 -0.039855451737 -0.039466816173 -0.038983440312 -0.038411193562 -0.037756179776 -0.037023813512 -0.036217181152 -0.035334253832 
-0.034364113077 -0.033282975554 -0.032052278847 -0.030623774109 -0.028957271044 -0.027052811141 -0.02499100916 -0.022964134806 -0.021267731432 
-0.020213575506 -0.019939405838 -0.02023157112 -0.014356749648 -0.014421964479 -0.014667789541 -0.015147912776 -0.015859547175 -0.016782018873 