# vtk DataFile Version 2.0
generated by CFD-lab course output (written by Tobias Neckel) 
ASCII

DATASET STRUCTURED_GRID
DIMENSIONS  51 51 1 
POINTS 2601 float

0.000000 0.000000 0
0.020000 0.000000 0
0.040000 0.000000 0
0.060000 0.000000 0
0.080000 0.000000 0
0.100000 0.000000 0
0.120000 0.000000 0
0.140000 0.000000 0
0.160000 0.000000 0
0.180000 0.000000 0
0.200000 0.000000 0
0.220000 0.000000 0
0.240000 0.000000 0
0.260000 0.000000 0
0.280000 0.000000 0
0.300000 0.000000 0
0.320000 0.000000 0
0.340000 0.000000 0
0.360000 0.000000 0
0.380000 0.000000 0
0.400000 0.000000 0
0.420000 0.000000 0
0.440000 0.000000 0
0.460000 0.000000 0
0.480000 0.000000 0
0.500000 0.000000 0
0.520000 0.000000 0
0.540000 0.000000 0
0.560000 0.000000 0
0.580000 0.000000 0
0.600000 0.000000 0
0.620000 0.000000 0
0.640000 0.000000 0
0.660000 0.000000 0
0.680000 0.000000 0
0.700000 0.000000 0
0.720000 0.000000 0
0.740000 0.000000 0
0.760000 0.000000 0
0.780000 0.000000 0
0.800000 0.000000 0
0.820000 0.000000 0
0.840000 0.000000 0
0.860000 0.000000 0
0.880000 0.000000 0
0.900000 0.000000 0
0.920000 0.000000 0
0.940000 0.000000 0
0.960000 0.000000 0
0.980000 0.000000 0
1.000000 0.000000 0
0.000000 0.020000 0
0.020000 0.020000 0
0.040000 0.020000 0
0.060000 0.020000 0
0.080000 0.020000 0
0.100000 0.020000 0
0.120000 0.020000 0
0.140000 0.020000 0
0.160000 0.020000 0
0.180000 0.020000 0
0.200000 0.020000 0
0.220000 0.020000 0
0.240000 0.020000 0
0.260000 0.020000 0
0.280000 0.020000 0
0.300000 0.020000 0
0.320000 0.020000 0
0.340000 0.020000 0
0.360000 0.020000 0
0.380000 0.020000 0
0.400000 0.020000 0
0.420000 0.020000 0
0.440000 0.020000 0
0.460000 0.020000 0
0.480000 0.020000 0
0.500000 0.020000 0
0.520000 0.020000 0
0.540000 0.020000 0
0.560000 0.020000 0
0.580000 0.020000 0
0.600000 0.020000 0
0.620000 0.020000 0
0.640000 0.020000 0
0.660000 0.020000 0
0.680000 0.020000 0
0.700000 0.020000 0
0.720000 0.020000 0
0.740000 0.020000 0
0.760000 0.020000 0
0.780000 0.020000 0
0.800000 0.020000 0
0.820000 0.020000 0
0.840000 0.020000 0
0.860000 0.020000 0
0.880000 0.020000 0
0.900000 0.020000 0
0.920000 0.020000 0
0.940000 0.020000 0
0.960000 0.020000 0
0.980000 0.020000 0
1.000000 0.020000 0
0.000000 0.040000 0
0.020000 0.040000 0
0.040000 0.040000 0
0.060000 0.040000 0
0.080000 0.040000 0
0.100000 0.040000 0
0.120000 0.040000 0
0.140000 0.040000 0
0.160000 0.040000 0
0.180000 0.040000 0
0.200000 0.040000 0
0.220000 0.040000 0
0.240000 0.040000 0
0.260000 0.040000 0
0.280000 0.040000 0
0.300000 0.040000 0
0.320000 0.040000 0
0.340000 0.040000 0
0.360000 0.040000 0
0.380000 0.040000 0
0.400000 0.040000 0
0.420000 0.040000 0
0.440000 0.040000 0
0.460000 0.040000 0
0.480000 0.040000 0
0.500000 0.040000 0
0.520000 0.040000 0
0.540000 0.040000 0
0.560000 0.040000 0
0.580000 0.040000 0
0.600000 0.040000 0
0.620000 0.040000 0
0.640000 0.040000 0
0.660000 0.040000 0
0.680000 0.040000 0
0.700000 0.040000 0
0.720000 0.040000 0
0.740000 0.040000 0
0.760000 0.040000 0
0.780000 0.040000 0
0.800000 0.040000 0
0.820000 0.040000 0
0.840000 0.040000 0
0.860000 0.040000 0
0.880000 0.040000 0
0.900000 0.040000 0
0.920000 0.040000 0
0.940000 0.040000 0
0.960000 0.040000 0
0.980000 0.040000 0
1.000000 0.040000 0
0.000000 0.060000 0
0.020000 0.060000 0
0.040000 0.060000 0
0.060000 0.060000 0
0.080000 0.060000 0
0.100000 0.060000 0
0.120000 0.060000 0
0.140000 0.060000 0
0.160000 0.060000 0
0.180000 0.060000 0
0.200000 0.060000 0
0.220000 0.060000 0
0.240000 0.060000 0
0.260000 0.060000 0
0.280000 0.060000 0
0.300000 0.060000 0
0.320000 0.060000 0
0.340000 0.060000 0
0.360000 0.060000 0
0.380000 0.060000 0
0.400000 0.060000 0
0.420000 0.060000 0
0.440000 0.060000 0
0.460000 0.060000 0
0.480000 0.060000 0
0.500000 0.060000 0
0.520000 0.060000 0
0.540000 0.060000 0
0.560000 0.060000 0
0.580000 0.060000 0
0.600000 0.060000 0
0.620000 0.060000 0
0.640000 0.060000 0
0.660000 0.060000 0
0.680000 0.060000 0
0.700000 0.060000 0
0.720000 0.060000 0
0.740000 0.060000 0
0.760000 0.060000 0
0.780000 0.060000 0
0.800000 0.060000 0
0.820000 0.060000 0
0.840000 0.060000 0
0.860000 0.060000 0
0.880000 0.060000 0
0.900000 0.060000 0
0.920000 0.060000 0
0.940000 0.060000 0
0.960000 0.060000 0
0.980000 0.060000 0
1.000000 0.060000 0
0.000000 0.080000 0
0.020000 0.080000 0
0.040000 0.080000 0
0.060000 0.080000 0
0.080000 0.080000 0
0.100000 0.080000 0
0.120000 0.080000 0
0.140000 0.080000 0
0.160000 0.080000 0
0.180000 0.080000 0
0.200000 0.080000 0
0.220000 0.080000 0
0.240000 0.080000 0
0.260000 0.080000 0
0.280000 0.080000 0
0.300000 0.080000 0
0.320000 0.080000 0
0.340000 0.080000 0
0.360000 0.080000 0
0.380000 0.080000 0
0.400000 0.080000 0
0.420000 0.080000 0
0.440000 0.080000 0
0.460000 0.080000 0
0.480000 0.080000 0
0.500000 0.080000 0
0.520000 0.080000 0
0.540000 0.080000 0
0.560000 0.080000 0
0.580000 0.080000 0
0.600000 0.080000 0
0.620000 0.080000 0
0.640000 0.080000 0
0.660000 0.080000 0
0.680000 0.080000 0
0.700000 0.080000 0
0.720000 0.080000 0
0.740000 0.080000 0
0.760000 0.080000 0
0.780000 0.080000 0
0.800000 0.080000 0
0.820000 0.080000 0
0.840000 0.080000 0
0.860000 0.080000 0
0.880000 0.080000 0
0.900000 0.080000 0
0.920000 0.080000 0
0.940000 0.080000 0
0.960000 0.080000 0
0.980000 0.080000 0
1.000000 0.080000 0
0.000000 0.100000 0
0.020000 0.100000 0
0.040000 0.100000 0
0.060000 0.100000 0
0.080000 0.100000 0
0.100000 0.100000 0
0.120000 0.100000 0
0.140000 0.100000 0
0.160000 0.100000 0
0.180000 0.100000 0
0.200000 0.100000 0
0.220000 0.100000 0
0.240000 0.100000 0
0.260000 0.100000 0
0.280000 0.100000 0
0.300000 0.100000 0
0.320000 0.100000 0
0.340000 0.100000 0
0.360000 0.100000 0
0.380000 0.100000 0
0.400000 0.100000 0
0.420000 0.100000 0
0.440000 0.100000 0
0.460000 0.100000 0
0.480000 0.100000 0
0.500000 0.100000 0
0.520000 0.100000 0
0.540000 0.100000 0
0.560000 0.100000 0
0.580000 0.100000 0
0.600000 0.100000 0
0.620000 0.100000 0
0.640000 0.100000 0
0.660000 0.100000 0
0.680000 0.100000 0
0.700000 0.100000 0
0.720000 0.100000 0
0.740000 0.100000 0
0.760000 0.100000 0
0.780000 0.100000 0
0.800000 0.100000 0
0.820000 0.100000 0
0.840000 0.100000 0
0.860000 0.100000 0
0.880000 0.100000 0
0.900000 0.100000 0
0.920000 0.100000 0
0.940000 0.100000 0
0.960000 0.100000 0
0.980000 0.100000 0
1.000000 0.100000 0
0.000000 0.120000 0
0.020000 0.120000 0
0.040000 0.120000 0
0.060000 0.120000 0
0.080000 0.120000 0
0.100000 0.120000 0
0.120000 0.120000 0
0.140000 0.120000 0
0.160000 0.120000 0
0.180000 0.120000 0
0.200000 0.120000 0
0.220000 0.120000 0
0.240000 0.120000 0
0.260000 0.120000 0
0.280000 0.120000 0
0.300000 0.120000 0
0.320000 0.120000 0
0.340000 0.120000 0
0.360000 0.120000 0
0.380000 0.120000 0
0.400000 0.120000 0
0.420000 0.120000 0
0.440000 0.120000 0
0.460000 0.120000 0
0.480000 0.120000 0
0.500000 0.120000 0
0.520000 0.120000 0
0.540000 0.120000 0
0.560000 0.120000 0
0.580000 0.120000 0
0.600000 0.120000 0
0.620000 0.120000 0
0.640000 0.120000 0
0.660000 0.120000 0
0.680000 0.120000 0
0.700000 0.120000 0
0.720000 0.120000 0
0.740000 0.120000 0
0.760000 0.120000 0
0.780000 0.120000 0
0.800000 0.120000 0
0.820000 0.120000 0
0.840000 0.120000 0
0.860000 0.120000 0
0.880000 0.120000 0
0.900000 0.120000 0
0.920000 0.120000 0
0.940000 0.120000 0
0.960000 0.120000 0
0.980000 0.120000 0
1.000000 0.120000 0
0.000000 0.140000 0
0.020000 0.140000 0
0.040000 0.140000 0
0.060000 0.140000 0
0.080000 0.140000 0
0.100000 0.140000 0
0.120000 0.140000 0
0.140000 0.140000 0
0.160000 0.140000 0
0.180000 0.140000 0
0.200000 0.140000 0
0.220000 0.140000 0
0.240000 0.140000 0
0.260000 0.140000 0
0.280000 0.140000 0
0.300000 0.140000 0
0.320000 0.140000 0
0.340000 0.140000 0
0.360000 0.140000 0
0.380000 0.140000 0
0.400000 0.140000 0
0.420000 0.140000 0
0.440000 0.140000 0
0.460000 0.140000 0
0.480000 0.140000 0
0.500000 0.140000 0
0.520000 0.140000 0
0.540000 0.140000 0
0.560000 0.140000 0
0.580000 0.140000 0
0.600000 0.140000 0
0.620000 0.140000 0
0.640000 0.140000 0
0.660000 0.140000 0
0.680000 0.140000 0
0.700000 0.140000 0
0.720000 0.140000 0
0.740000 0.140000 0
0.760000 0.140000 0
0.780000 0.140000 0
0.800000 0.140000 0
0.820000 0.140000 0
0.840000 0.140000 0
0.860000 0.140000 0
0.880000 0.140000 0
0.900000 0.140000 0
0.920000 0.140000 0
0.940000 0.140000 0
0.960000 0.140000 0
0.980000 0.140000 0
1.000000 0.140000 0
0.000000 0.160000 0
0.020000 0.160000 0
0.040000 0.160000 0
0.060000 0.160000 0
0.080000 0.160000 0
0.100000 0.160000 0
0.120000 0.160000 0
0.140000 0.160000 0
0.160000 0.160000 0
0.180000 0.160000 0
0.200000 0.160000 0
0.220000 0.160000 0
0.240000 0.160000 0
0.260000 0.160000 0
0.280000 0.160000 0
0.300000 0.160000 0
0.320000 0.160000 0
0.340000 0.160000 0
0.360000 0.160000 0
0.380000 0.160000 0
0.400000 0.160000 0
0.420000 0.160000 0
0.440000 0.160000 0
0.460000 0.160000 0
0.480000 0.160000 0
0.500000 0.160000 0
0.520000 0.160000 0
0.540000 0.160000 0
0.560000 0.160000 0
0.580000 0.160000 0
0.600000 0.160000 0
0.620000 0.160000 0
0.640000 0.160000 0
0.660000 0.160000 0
0.680000 0.160000 0
0.700000 0.160000 0
0.720000 0.160000 0
0.740000 0.160000 0
0.760000 0.160000 0
0.780000 0.160000 0
0.800000 0.160000 0
0.820000 0.160000 0
0.840000 0.160000 0
0.860000 0.160000 0
0.880000 0.160000 0
0.900000 0.160000 0
0.920000 0.160000 0
0.940000 0.160000 0
0.960000 0.160000 0
0.980000 0.160000 0
1.000000 0.160000 0
0.000000 0.180000 0
0.020000 0.180000 0
0.040000 0.180000 0
0.060000 0.180000 0
0.080000 0.180000 0
0.100000 0.180000 0
0.120000 0.180000 0
0.140000 0.180000 0
0.160000 0.180000 0
0.180000 0.180000 0
0.200000 0.180000 0
0.220000 0.180000 0
0.240000 0.180000 0
0.260000 0.180000 0
0.280000 0.180000 0
0.300000 0.180000 0
0.320000 0.180000 0
0.340000 0.180000 0
0.360000 0.180000 0
0.380000 0.180000 0
0.400000 0.180000 0
0.420000 0.180000 0
0.440000 0.180000 0
0.460000 0.180000 0
0.480000 0.180000 0
0.500000 0.180000 0
0.520000 0.180000 0
0.540000 0.180000 0
0.560000 0.180000 0
0.580000 0.180000 0
0.600000 0.180000 0
0.620000 0.180000 0
[...]
POINT_DATA 2601 

VECTORS velocity float
0.000000 0.000000 0
0.000000 0.000000 0
-0.000000 0.000000 0
-0.000000 0.000000 0
-0.000000 0.000000 0
-0.000000 0.000000 0
0.000000 0.000000 0
0.000000 0.000000 0
0.000000 0.000000 0
0.000000 0.000000 0
-0.000000 0.000000 0
-0.000000 0.000000 0
-0.000000 0.000000 0
0.000000 0.000000 0
0.000000 0.000000 0
0.000000 0.000000 0
0.000000 0.000000 0
-0.000000 0.000000 0
-0.000000 0.000000 0
-0.000000 0.000000 0
0.000000 0.000000 0
0.000000 0.000000 0
0.000000 0.000000 0
0.000000 0.000000 0
-0.000000 0.000000 0
-0.000000 0.000000 0
-0.000000 0.000000 0
-0.000000 0.000000 0
-0.000000 0.000000 0
0.000000 0.000000 0
0.000000 0.000000 0
0.000000 0.000000 0
0.000000 0.000000 0
0.000000 0.000000 0
0.000000 0.000000 0
-0.000000 0.000000 0
-0.000000 0.000000 0
-0.000000 0.000000 0
-0.000000 0.000000 0
0.000000 0.000000 0
0.000000 0.000000 0
0.000000 0.000000 0
-0.000000 0.000000 0
-0.000000 0.000000 0
-0.000000 0.000000 0
-0.000000 0.000000 0
-0.000000 0.000000 0
-0.000000 0.000000 0
0.000000 0.000000 0
0.000000 0.000000 0
0.000000 0.000000 0
0.000000 0.000000 0
0.000061 -0.000060 0
0.000084 -0.000024 0
-0.000010 0.000053 0
-0.000249 0.000142 0
-0.000636 0.000227 0
-0.001160 0.000301 0
-0.001804 0.000363 0
-0.002545 0.000412 0
-0.003365 0.000450 0
-0.004244 0.000477 0
-0.005162 0.000494 0
-0.006105 0.000504 0
-0.007057 0.000506 0
-0.008005 0.000500 0
-0.008934 0.000488 0
-0.009834 0.000470 0
-0.010692 0.000445 0
-0.011494 0.000414 0
-0.012231 0.000377 0
-0.012889 0.000333 0
-0.013457 0.000282 0
-0.013924 0.000226 0
-0.014278 0.000164 0
-0.014511 0.000096 0
-0.014613 0.000024 0
-0.014578 -0.000051 0
-0.014402 -0.000129 0
-0.014082 -0.000207 0
-0.013621 -0.000284 0
-0.013023 -0.000357 0
-0.012295 -0.000425 0
-0.011450 -0.000485 0
-0.010504 -0.000536 0
-0.009475 -0.000576 0
-0.008386 -0.000602 0
-0.007262 -0.000613 0
-0.006129 -0.000609 0
-0.005017 -0.000589 0
-0.003953 -0.000554 0
-0.002963 -0.000503 0
-0.002075 -0.000439 0
-0.001309 -0.000363 0
-0.000684 -0.000278 0
-0.000212 -0.000188 0
0.000102 -0.000097 0
0.000263 -0.000012 0
0.000287 0.000057 0
0.000208 0.000096 0
0.000083 0.000082 0
0.000000 0.000000 0
0.000000 -0.000000 0
0.000025 -0.000084 0
-0.000071 0.000070 0
-0.000378 0.000332 0
-0.000933 0.000627 0
-0.001739 0.000912 0
-0.002780 0.001168 0
-0.004027 0.001385 0
-0.005448 0.001561 0
-0.007007 0.001698 0
-0.008672 0.001797 0
-0.010409 0.001862 0
-0.012189 0.001895 0
-0.013984 0.001900 0
-0.015768 0.001877 0
-0.017515 0.001830 0
-0.019203 0.001757 0
-0.020807 0.001660 0
-0.022305 0.001539 0
-0.023674 0.001395 0
-0.024893 0.001226 0
-0.025940 0.001035 0
-0.026794 0.000821 0
-0.027437 0.000587 0
-0.027852 0.000335 0
-0.028023 0.000067 0
-0.027941 -0.000211 0
-0.027599 -0.000496 0
-0.026993 -0.000781 0
-0.026127 -0.001060 0
-0.025012 -0.001326 0
-0.023661 -0.001572 0
-0.022096 -0.001791 0
-0.020348 -0.001975 0
-0.018448 -0.002118 0
-0.016439 -0.002213 0
-0.014363 -0.002256 0
-0.012269 -0.002245 0
-0.010207 -0.002177 0
-0.008226 -0.002054 0
-0.006375 -0.001878 0
-0.004697 -0.001654 0
-0.003233 -0.001391 0
-0.002013 -0.001097 0
-0.001058 -0.000787 0
-0.000375 -0.000475 0
0.000041 -0.000185 0
0.000220 0.000055 0
0.000212 0.000204 0
0.000099 0.000208 0
0.000000 0.000000 0
0.000000 -0.000000 0
-0.000055 0.000010 0
-0.000345 0.000379 0
-0.000938 0.000915 0
-0.001864 0.001504 0
-0.003120 0.002074 0
-0.004682 0.002589 0
-0.006515 0.003031 0
-0.008577 0.003392 0
-0.010822 0.003674 0
-0.013206 0.003879 0
-0.015686 0.004012 0
-0.018221 0.004079 0
-0.020772 0.004084 0
-0.023302 0.004031 0
-0.025777 0.003923 0
-0.028161 0.003762 0
-0.030423 0.003547 0
-0.032530 0.003282 0
-0.034451 0.002965 0
-0.036154 0.002598 0
-0.037612 0.002184 0
-0.038796 0.001723 0
-0.039680 0.001221 0
-0.040242 0.000682 0
-0.040464 0.000114 0
-0.040332 -0.000476 0
-0.039838 -0.001077 0
-0.038979 -0.001678 0
-0.037760 -0.002265 0
-0.036196 -0.002824 0
-0.034307 -0.003340 0
-0.032124 -0.003798 0
-0.029686 -0.004184 0
-0.027039 -0.004485 0
-0.024236 -0.004687 0
-0.021338 -0.004783 0
-0.018408 -0.004765 0
-0.015513 -0.004632 0
-0.012720 -0.004386 0
-0.010093 -0.004032 0
-0.007693 -0.003580 0
-0.005571 -0.003047 0
-0.003769 -0.002454 0
-0.002317 -0.001826 0
-0.001224 -0.001196 0
-0.000485 -0.000608 0
-0.000066 -0.000113 0
0.000088 0.000217 0
0.000068 0.000294 0
0.000000 0.000000 0
0.000000 -0.000000 0
-0.000152 0.000260 0
-0.000670 0.000954 0
-0.001592 0.001852 0
-0.002924 0.002809 0
-0.004652 0.003730 0
-0.006743 0.004563 0
-0.009152 0.005279 0
-0.011829 0.005868 0
-0.014722 0.006327 0
-0.017777 0.006661 0
-0.020943 0.006877 0
-0.024169 0.006981 0
-0.027408 0.006981 0
-0.030614 0.006882 0
-0.033743 0.006689 0
-0.036753 0.006404 0
-0.039602 0.006029 0
-0.042251 0.005567 0
-0.044660 0.005019 0
-0.046792 0.004387 0
-0.048611 0.003676 0
-0.050083 0.002889 0
-0.051178 0.002034 0
-0.051869 0.001119 0
-0.052134 0.000157 0
-0.051958 -0.000838 0
-0.051332 -0.001849 0
-0.050253 -0.002858 0
-0.048728 -0.003842 0
-0.046775 -0.004779 0
-0.044420 -0.005644 0
-0.041700 -0.006413 0
-0.038661 -0.007061 0
-0.035359 -0.007568 0
-0.031858 -0.007914 0
-0.028231 -0.008085 0
-0.024555 -0.008070 0
-0.020908 -0.007865 0
-0.017373 -0.007473 0
-0.014028 -0.006904 0
-0.010944 -0.006176 0
-0.008186 -0.005314 0
-0.005806 -0.004352 0
-0.003840 -0.003332 0
-0.002304 -0.002307 0
-0.001194 -0.001343 0
-0.000481 -0.000517 0
-0.000108 0.000070 0
0.000013 0.000296 0
0.000000 0.000000 0
0.000000 -0.000000 0
-0.000252 0.000681 0
-0.001014 0.001820 0
-0.002283 0.003170 0
-0.004040 0.004563 0
-0.006253 0.005892 0
-0.008875 0.007088 0
-0.011853 0.008117 0
-0.015128 0.008963 0
-0.018641 0.009622 0
-0.022331 0.010100 0
-0.026138 0.010404 0
-0.030006 0.010544 0
-0.033879 0.010529 0
-0.037705 0.010366 0
-0.041432 0.010062 0
-0.045011 0.009621 0
-0.048394 0.009046 0
-0.051534 0.008340 0
-0.054386 0.007506 0
-0.056905 0.006549 0
-0.059052 0.005474 0
-0.060787 0.004290 0
-0.062076 0.003007 0
-0.062889 0.001639 0
-0.063202 0.000203 0
-0.062996 -0.001279 0
-0.062261 -0.002783 0
-0.060997 -0.004281 0
-0.059212 -0.005742 0
-0.056924 -0.007132 0
-0.054163 -0.008415 0
-0.050972 -0.009558 0
-0.047402 -0.010526 0
-0.043516 -0.011287 0
-0.039389 -0.011814 0
-0.035100 -0.012086 0
-0.030738 -0.012088 0
-0.026394 -0.011814 0
-0.022161 -0.011267 0
-0.018128 -0.010461 0
-0.014381 -0.009422 0
-0.010994 -0.008185 0
-0.008029 -0.006800 0
-0.005531 -0.005328 0
-0.003524 -0.003842 0
-0.002010 -0.002430 0
-0.000966 -0.001200 0
-0.000339 -0.000276 0
-0.000053 0.000187 0
0.000000 0.000000 0
0.000000 -0.000000 0
-0.000350 0.001275 0
-0.001357 0.002985 0
-0.002979 0.004879 0
-0.005167 0.006778 0
-0.007868 0.008564 0
-0.011019 0.010163 0
-0.014558 0.011533 0
-0.018416 0.012656 0
-0.022526 0.013530 0
-0.026821 0.014158 0
-0.031235 0.014552 0
-0.035705 0.014722 0
-0.040171 0.014680 0
-0.044573 0.014435 0
-0.048855 0.013995 0
-0.052961 0.013366 0
-0.056837 0.012552 0
-0.060432 0.011558 0
-0.063694 0.010390 0
-0.066576 0.009054 0
-0.069031 0.007557 0
-0.071017 0.005913 0
-0.072496 0.004136 0
-0.073435 0.002245 0
-0.073807 0.000264 0
-0.073593 -0.001778 0
-0.072781 -0.003848 0
-0.071369 -0.005908 0
-0.069366 -0.007916 0
-0.066793 -0.009828 0
-0.063680 -0.011596 0
-0.060073 -0.013174 0
-0.056028 -0.014517 0
-0.051615 -0.015581 0
-0.046911 -0.016330 0
-0.042008 -0.016735 0
-0.037001 -0.016775 0
-0.031991 -0.016442 0
-0.027082 -0.015739 0
-0.022376 -0.014684 0
-0.017969 -0.013311 0
-0.013947 -0.011666 0
-0.010383 -0.009815 0
-0.007333 -0.007836 0
-0.004831 -0.005827 0
-0.002887 -0.003901 0
-0.001486 -0.002188 0
-0.000586 -0.000843 0
-0.000121 -0.000044 0
0.000000 0.000000 0
0.000000 0.000000 0
-0.000445 0.002039 0
-0.001693 0.004449 0
-0.003663 0.006979 0
-0.006278 0.009451 0
-0.009462 0.011744 0
-0.013136 0.013779 0
-0.017224 0.015514 0
-0.021649 0.016931 0
-0.026336 0.018026 0
-0.031211 0.018808 0
-0.036203 0.019288 0
-0.041244 0.019480 0
-0.046270 0.019397 0
-0.051215 0.019050 0
-0.056018 0.018450 0
-0.060619 0.017603 0
-0.064961 0.016516 0
-0.068985 0.015196 0
-0.072639 0.013650 0
-0.075868 0.011886 0
-0.078624 0.009916 0
-0.080861 0.007755 0
-0.082537 0.005425 0
-0.083616 0.002950 0
-0.084069 0.000361 0
-0.083874 -0.002306 0
-0.083019 -0.005007 0
-0.081499 -0.007696 0
-0.079324 -0.010319 0
-0.076511 -0.012818 0
-0.073095 -0.015135 0
-0.069122 -0.017210 0
-0.064649 -0.018984 0
-0.059750 -0.020404 0
-0.054510 -0.021421 0
-0.049023 -0.021997 0
-0.043395 -0.022105 0
-0.037736 -0.021732 0
-0.032159 -0.020881 0
-0.026779 -0.019574 0
-0.021703 -0.017851 0
-0.017030 -0.015771 0
-0.012847 -0.013414 0
-0.009221 -0.010880 0
-0.006199 -0.008288 0
-0.003801 -0.005775 0
-0.002025 -0.003501 0
-0.000838 -0.001642 0
-0.000188 -0.000400 0
0.000000 0.000000 0
0.000000 0.000000 0
-0.000535 0.002968 0
-0.002015 0.006202 0
-0.004324 0.009464 0
-0.007357 0.012576 0
-0.011013 0.015422 0
-0.015198 0.017925 0
-0.019821 0.020046 0
-0.024796 0.021768 0
-0.030039 0.023091 0
-0.035471 0.024025 0
-0.041017 0.024586 0
-0.046603 0.024789 0
-0.052161 0.024650 0
-0.057622 0.024183 0
-0.062922 0.023400 0
-0.067996 0.022308 0
-0.072783 0.020918 0
-0.077224 0.019236 0
-0.081258 0.017273 0
-0.084831 0.015039 0
-0.087891 0.012550 0
-0.090387 0.009825 0
-0.092275 0.006891 0
-0.093516 0.003777 0
-0.094079 0.000523 0
-0.093939 -0.002828 0
-0.093079 -0.006223 0
-0.091495 -0.009603 0
-0.089193 -0.012904 0
-0.086189 -0.016056 0
-0.082517 -0.018986 0
-0.078221 -0.021620 0
-0.073362 -0.023888 0
-0.068014 -0.025720 0
-0.062266 -0.027057 0
-0.056217 -0.027850 0
-0.049981 -0.028063 0
-0.043676 -0.027678 0
-0.037428 -0.026696 0
-0.031360 -0.025141 0
-0.025597 -0.023059 0
-0.020250 -0.020521 0
-0.015420 -0.017624 0
-0.011190 -0.014485 0
-0.007620 -0.011247 0
-0.004746 -0.008075 0
-0.002576 -0.005151 0
-0.001093 -0.002679 0
-0.000255 -0.000882 0
0.000000 0.000000 0
0.000000 0.000000 0
-0.000621 0.004054 0
-0.002323 0.008237 0
-0.004958 0.012320 0
-0.008393 0.016140 0
-0.012506 0.019585 0
-0.017185 0.022587 0
-0.022325 0.025112 0
-0.027830 0.027148 0
-0.033609 0.028702 0
-0.039577 0.029786 0
-0.045653 0.030421 0
-0.051761 0.030624 0
-0.057829 0.030416 0
-0.063786 0.029811 0
-0.069563 0.028824 0
-0.075094 0.027465 0
-0.080315 0.025744 0
-0.085164 0.023671 0
-0.089578 0.021258 0
-0.093499 0.018518 0
-0.096872 0.015471 0
-0.099644 0.012140 0
-0.101768 0.008555 0
-0.103201 0.004755 0
-0.103909 0.000783 0
-0.103862 -0.003305 0
-0.103043 -0.007451 0
-0.101442 -0.011583 0
-0.099061 -0.015625 0
-0.095915 -0.019494 0
-0.092033 -0.023103 0
-0.087459 -0.026365 0
-0.082251 -0.029191 0
-0.076486 -0.031500 0
-0.070254 -0.033218 0
-0.063660 -0.034282 0
-0.056822 -0.034646 0
-0.049868 -0.034285 0
-0.042935 -0.033197 0
-0.036161 -0.031405 0
-0.029682 -0.028961 0
-0.023629 -0.025947 0
-0.018118 -0.022474 0
-0.013250 -0.018680 0
-0.009102 -0.014732 0
-0.005725 -0.010819 0
-0.003143 -0.007153 0
-0.001352 -0.003963 0
-0.000322 -0.001493 0
0.000000 0.000000 0
0.000000 0.000000 0
-0.000702 0.005290 0
-0.002614 0.010539 0
-0.005559 0.015534 0
-0.009379 0.020125 0
-0.013930 0.024214 0
-0.019082 0.027745 0
-0.024718 0.030691 0
-0.030732 0.033052 0
-0.037025 0.034838 0
-0.043506 0.036069 0
-0.050090 0.036771 0
-0.056700 0.036965 0
-0.063257 0.036674 0
-0.069691 0.035917 0
-0.075931 0.034708 0
-0.081908 0.033061 0
-0.087557 0.030987 0
-0.092811 0.028499 0
-0.097609 0.025608 0
-0.101888 0.022333 0
-0.105591 0.018695 0
-0.108662 0.014721 0
-0.111050 0.010448 0
-0.112711 0.005918 0
-0.113604 0.001184 0
-0.113697 -0.003693 0
-0.112966 -0.008643 0
-0.111399 -0.013586 0
-0.108991 -0.018431 0
-0.105754 -0.023084 0
-0.101712 -0.027442 0
-0.096904 -0.031402 0
-0.091388 -0.034860 0
-0.085238 -0.037717 0
-0.078545 -0.039884 0
-0.071417 -0.041283 0
-0.063980 -0.041855 0
-0.056370 -0.041565 0
-0.048734 -0.040404 0
-0.041226 -0.038394 0
-0.033999 -0.035591 0
-0.027201 -0.032085 0
-0.020970 -0.028002 0
-0.015424 -0.023501 0
-0.010661 -0.018773 0
-0.006750 -0.014034 0
-0.003733 -0.009524 0
-0.001619 -0.005501 0
-0.000389 -0.002235 0
0.000000 0.000000 0
0.000000 -0.000000 0
-0.000778 0.006668 0
-0.002888 0.013094 0
-0.006126 0.019085 0
-0.010310 0.024511 0
-0.015276 0.029288 0
-0.020878 0.033376 0
-0.026986 0.036762 0
-0.033484 0.039455 0
-0.040266 0.041475 0
-0.047237 0.042852 0
-0.054307 0.043614 0
-0.061396 0.043791 0
-0.068425 0.043408 0
-0.075321 0.042485 0
-0.082010 0.041041 0
-0.088425 0.039091 0
-0.094498 0.036647 0
-0.100160 0.033723 0
-0.105349 0.030334 0
-0.110000 0.026500 0
-0.114054 0.022244 0
-0.117451 0.017599 0
-0.120137 0.012604 0
-0.122064 0.007308 0
-0.123187 0.001769 0
-0.123468 -0.003943 0
-0.122880 -0.009749 0
-0.121401 -0.015558 0
-0.119023 -0.021269 0
-0.115750 -0.026774 0
-0.111600 -0.031953 0
-0.106607 -0.036688 0
-0.100824 -0.040858 0
-0.094323 -0.044343 0
-0.087194 -0.047038 0
-0.079548 -0.048846 0
-0.071514 -0.049693 0
-0.063239 -0.049531 0
-0.054881 -0.048341 0
-0.046610 -0.046140 0
-0.038596 -0.042986 0
-0.031010 -0.038977 0
-0.024010 -0.034251 0
-0.017740 -0.028989 0
-0.012319 -0.023406 0
-0.007838 -0.017747 0
-0.004356 -0.012285 0
-0.001899 -0.007307 0
-0.000459 -0.003112 0
0.000000 0.000000 0
0.000000 -0.000000 0
-0.000849 0.008178 0
-0.003144 0.015887 0
-0.006656 0.022956 0
-0.011180 0.029274 0
-0.016536 0.034782 0
-0.022561 0.039455 0
-0.029113 0.043298 0
-0.036068 0.046332 0
-0.043314 0.048591 0
-0.050749 0.050111 0
-0.058282 0.050930 0
-0.065829 0.051083 0
-0.073310 0.050599 0
-0.080651 0.049502 0
-0.087779 0.047813 0
-0.094624 0.045548 0
-0.101118 0.042723 0
-0.107192 0.039350 0
-0.112782 0.035448 0
-0.117821 0.031038 0
-0.122248 0.026145 0
-0.126000 0.020805 0
-0.129021 0.015061 0
-0.131256 0.008968 0
-0.132656 0.002588 0
-0.133179 -0.004000 0
-0.132788 -0.010711 0
-0.131457 -0.017442 0
-0.129170 -0.024082 0
-0.125920 -0.030507 0
-0.121720 -0.036585 0
-0.116596 -0.042177 0
-0.110593 -0.047144 0
-0.103780 -0.051348 0
-0.096245 -0.054659 0
-0.088098 -0.056962 0
-0.079474 -0.058164 0
-0.070527 -0.058198 0
-0.061428 -0.057033 0
-0.052362 -0.054679 0
-0.043521 -0.051191 0
-0.035099 -0.046671 0
-0.027279 -0.041272 0
-0.020231 -0.035192 0
-0.014102 -0.028675 0
-0.009006 -0.021996 0
-0.005024 -0.015463 0
-0.002198 -0.009398 0
-0.000534 -0.004133 0
0.000000 0.000000 0
0.000000 -0.000000 0
-0.000914 0.009812 0
-0.003380 0.018901 0
-0.007145 0.027122 0
-0.011985 0.034390 0
-0.017702 0.040668 0
-0.024120 0.045953 0
-0.031087 0.050270 0
-0.038470 0.053655 0
-0.046149 0.056156 0
-0.054020 0.057820 0
-0.061990 0.058694 0
-0.069971 0.058819 0
-0.077884 0.058230 0
-0.085654 0.056954 0
-0.093207 0.055014 0
-0.100474 0.052430 0
-0.107386 0.049215 0
-0.113876 0.045387 0
-0.119875 0.040963 0
-0.125319 0.035966 0
-0.130141 0.030423 0
-0.134279 0.024372 0
-0.137670 0.017860 0
-0.140257 0.010943 0
-0.141984 0.003692 0
-0.142802 -0.003810 0
-0.142669 -0.011470 0
-0.141548 -0.019176 0
-0.139415 -0.026807 0
-0.136254 -0.034223 0
-0.132067 -0.041278 0
-0.126871 -0.047815 0
-0.120704 -0.053673 0
-0.113626 -0.058692 0
-0.105721 -0.062720 0
-0.097100 -0.065616 0
-0.087898 -0.067265 0
-0.078278 -0.067577 0
-0.068422 -0.066506 0
-0.058532 -0.064047 0
-0.048824 -0.060250 0
-0.039514 -0.055219 0
-0.030818 -0.049119 0
-0.022934 -0.042166 0
-0.016039 -0.034631 0
-0.010276 -0.026825 0
-0.005750 -0.019092 0
-0.002524 -0.011797 0
-0.000615 -0.005310 0
0.000000 0.000000 0
0.000000 -0.000000 0
-0.000973 0.011558 0
-0.003594 0.022118 0
-0.007591 0.031561 0
-0.012720 0.039831 0
-0.018767 0.046916 0
-0.025546 0.052840 0
-0.032894 0.057647 0
-0.040671 0.061393 0
-0.048752 0.064141 0
-0.057029 0.065952 0
-0.065406 0.066881 0
-0.073795 0.066977 0
-0.082117 0.066281 0
-0.090295 0.064825 0
-0.098259 0.062634 0
-0.105937 0.059728 0
-0.113263 0.056124 0
-0.120168 0.051839 0
-0.126584 0.046891 0
-0.132446 0.041303 0
-0.137685 0.035105 0
-0.142236 0.028334 0
-0.146033 0.021039 0
-0.149013 0.013281 0
-0.151116 0.005134 0
-0.152285 -0.003315 0
-0.152469 -0.011964 0
-0.151624 -0.020696 0
-0.149713 -0.029376 0
-0.146711 -0.037855 0
-0.142607 -0.045968 0
-0.137407 -0.053540 0
-0.131138 -0.060389 0
-0.123852 -0.066331 0
-0.115625 -0.071185 0
-0.106564 -0.074785 0
-0.096807 -0.076986 0
-0.086520 -0.077675 0
-0.075899 -0.076779 0
-0.065162 -0.074277 0
-0.054547 -0.070209 0
-0.044300 -0.064677 0
-0.034667 -0.057852 0
-0.025884 -0.049971 0
-0.018159 -0.041333 0
-0.011669 -0.032285 0
-0.006548 -0.023215 0
-0.002882 -0.014533 0
-0.000705 -0.006657 0
0.000000 0.000000 0
0.000000 0.000000 0
-0.001027 0.013407 0
-0.003787 0.025518 0
-0.007990 0.036247 0
-0.013378 0.045566 0
-0.019723 0.053495 0
-0.026828 0.060081 0
-0.034521 0.065394 0
-0.042655 0.069512 0
-0.051102 0.072514 0
-0.059751 0.074474 0
-0.068503 0.075461 0
-0.077271 0.075530 0
-0.085974 0.074730 0
-0.094538 0.073096 0
-0.102892 0.070657 0
-0.110967 0.067434 0
-0.118696 0.063445 0
-0.126013 0.058708 0
-0.132849 0.053241 0
-0.139138 0.047066 0
-0.144810 0.040213 0
-0.149798 0.032720 0
-0.154033 0.024637 0
-0.157447 0.016026 0
-0.159972 0.006964 0
-0.161546 -0.002457 0
-0.162108 -0.012131 0
-0.161604 -0.021933 0
-0.159987 -0.031719 0
-0.157218 -0.041329 0
-0.153273 -0.050582 0
-0.148145 -0.059284 0
-0.141848 -0.067228 0
-0.134420 -0.074206 0
-0.125931 -0.080007 0
-0.116480 -0.084434 0
-0.106202 -0.087309 0
-0.095267 -0.088486 0
-0.083882 -0.087864 0
-0.072281 -0.085399 0
-0.060726 -0.081112 0
-0.049494 -0.075099 0
-0.038865 -0.067535 0
-0.029114 -0.058675 0
-0.020489 -0.048846 0
-0.013206 -0.038435 0
-0.007432 -0.027879 0
-0.003281 -0.017640 0
-0.000805 -0.008192 0
0.000000 -0.000000 0
0.000000 0.000000 0
-0.001073 0.015345 0
-0.003955 0.029081 0
-0.008339 0.041152 0
-0.013954 0.051564 0
-0.020562 0.060367 0
-0.027954 0.067638 0
-0.035953 0.073474 0
-0.044406 0.077974 0
-0.053180 0.081237 0
-0.062162 0.083353 0
-0.071253 0.084401 0
-0.080365 0.084448 0
-0.089418 0.083548 0
-0.098339 0.081743 0
-0.107058 0.079063 0
-0.115510 0.075532 0
-0.123627 0.071170 0
-0.131345 0.065992 0
-0.138597 0.060016 0
-0.145316 0.053265 0
-0.151432 0.045766 0
-0.156875 0.037557 0
-0.161574 0.028687 0
-0.165455 0.019220 0
-0.168446 0.009233 0
-0.170475 -0.001179 0
-0.171474 -0.011906 0
-0.171377 -0.022817 0
-0.170126 -0.033762 0
-0.167668 -0.044569 0
-0.163964 -0.055041 0
-0.158992 -0.064966 0
-0.152750 -0.074114 0
-0.145262 -0.082248 0
-0.136583 -0.089126 0
-0.126805 -0.094514 0
-0.116057 -0.098198 0
-0.104509 -0.099994 0
-0.092375 -0.099765 0
-0.079907 -0.097433 0
-0.067387 -0.092996 0
-0.055126 -0.086538 0
-0.043444 -0.078232 0
-0.032655 -0.068348 0
-0.023057 -0.057241 0
-0.014908 -0.045342 0
-0.008416 -0.033140 0
-0.003726 -0.021160 0
-0.000918 -0.009938 0
0.000000 -0.000000 0
0.000000 0.000000 0
-0.001112 0.017361 0
-0.004097 0.032784 0
-0.008635 0.046247 0
-0.014445 0.057789 0
-0.021276 0.067495 0
-0.028916 0.075473 0
-0.037179 0.081846 0
-0.045907 0.086739 0
-0.054965 0.090270 0
-0.064239 0.092547 0
-0.073627 0.093663 0
-0.083043 0.093695 0
-0.092409 0.092704 0
-0.101652 0.090736 0
-0.110705 0.087827 0
-0.119505 0.084003 0
-0.127987 0.079281 0
-0.136088 0.073678 0
-0.143744 0.067212 0
-0.150887 0.059901 0
-0.157448 0.051773 0
-0.163356 0.042862 0
-0.168536 0.033217 0
-0.172912 0.022898 0
-0.176404 0.011984 0
-0.178935 0.000571 0
-0.180425 -0.011228 0
-0.180799 -0.023280 0
-0.179986 -0.035429 0
-0.177919 -0.047491 0
-0.174544 -0.059258 0
-0.169820 -0.070498 0
-0.163727 -0.080959 0
-0.156272 -0.090372 0
-0.147493 -0.098464 0
-0.137469 -0.104961 0
-0.126319 -0.109604 0
-0.114211 -0.112167 0
-0.101362 -0.112467 0
-0.088037 -0.110387 0
-0.074542 -0.105892 0
-0.061219 -0.099042 0
-0.048428 -0.090006 0
-0.036536 -0.079062 0
-0.025887 -0.066593 0
-0.016794 -0.053077 0
-0.009511 -0.039061 0
-0.004225 -0.025138 0
-0.001045 -0.011918 0
0.000000 -0.000000 0
0.000000 0.000000 0
-0.001144 0.019442 0
-0.004212 0.036604 0
-0.008876 0.051500 0
-0.014844 0.064205 0
-0.021860 0.074838 0
-0.029704 0.083541 0
-0.038186 0.090465 0
-0.047143 0.095761 0
-0.056439 0.099569 0
-0.065957 0.102015 0
-0.075597 0.103205 0
-0.085272 0.103230 0
-0.094906 0.102157 0
-0.104429 0.100039 0
-0.113777 0.096916 0