# vtk DataFile Version 2.0
generated by CFD-lab course output (written by Tobias Neckel) 
ASCII

DATASET STRUCTURED_GRID
DIMENSIONS  51 51 1 
POINTS 2601 float

0.000000 0.000000 0
0.020000 0.000000 0
0.040000 0.000000 0
0.060000 0.000000 0
0.080000 0.000000 0
0.100000 0.000000 0
0.120000 0.000000 0
0.140000 0.000000 0
0.160000 0.000000 0
0.180000 0.000000 0
0.200000 0.000000 0
0.220000 0.000000 0
0.240000 0.000000 0
0.260000 0.000000 0
0.280000 0.000000 0
0.300000 0.000000 0
0.320000 0.000000 0
0.340000 0.000000 0
0.360000 0.000000 0
0.380000 0.000000 0
0.400000 0.000000 0
0.420000 0.000000 0
0.440000 0.000000 0
0.460000 0.000000 0
0.480000 0.000000 0
0.500000 0.000000 0
0.520000 0.000000 0
0.540000 0.000000 0
0.560000 0.000000 0
0.580000 0.000000 0
0.600000 0.000000 0
0.620000 0.000000 0
0.640000 0.000000 0
0.660000 0.000000 0
0.680000 0.000000 0
0.700000 0.000000 0
0.720000 0.000000 0
0.740000 0.000000 0
0.760000 0.000000 0
0.780000 0.000000 0
0.800000 0.000000 0
0.820000 0.000000 0
0.840000 0.000000 0
0.860000 0.000000 0
0.880000 0.000000 0
0.900000 0.000000 0
0.920000 0.000000 0
0.940000 0.000000 0
0.960000 0.000000 0
0.980000 0.000000 0
1.000000 0.000000 0
0.000000 0.020000 0
0.020000 0.020000 0
0.040000 0.020000 0
0.060000 0.020000 0
0.080000 0.020000 0
0.100000 0.020000 0
0.120000 0.020000 0
0.140000 0.020000 0
0.160000 0.020000 0
0.180000 0.020000 0
0.200000 0.020000 0
0.220000 0.020000 0
0.240000 0.020000 0
0.260000 0.020000 0
0.280000 0.020000 0
0.300000 0.020000 0
0.320000 0.020000 0
0.340000 0.020000 0
0.360000 0.020000 0
0.380000 0.020000 0
0.400000 0.020000 0
0.420000 0.020000 0
0.440000 0.020000 0
0.460000 0.020000 0
0.480000 0.020000 0
0.500000 0.020000 0
0.520000 0.020000 0
0.540000 0.020000 0
0.560000 0.020000 0
0.580000 0.020000 0
0.600000 0.020000 0
0.620000 0.020000 0
0.640000 0.020000 0
0.660000 0.020000 0
0.680000 0.020000 0
0.700000 0.020000 0
0.720000 0.020000 0
0.740000 0.020000 0
0.760000 0.020000 0
0.780000 0.020000 0
0.800000 0.020000 0
0.820000 0.020000 0
0.840000 0.020000 0
0.860000 0.020000 0
0.880000 0.020000 0
0.900000 0.020000 0
0.920000 0.020000 0
0.940000 0.020000 0
0.960000 0.020000 0
0.980000 0.020000 0
1.000000 0.020000 0
0.000000 0.040000 0
0.020000 0.040000 0
0.040000 0.040000 0
0.060000 0.040000 0
0.080000 0.040000 0
0.100000 0.040000 0
0.120000 0.040000 0
0.140000 0.040000 0
0.160000 0.040000 0
0.180000 0.040000 0
0.200000 0.040000 0
0.220000 0.040000 0
0.240000 0.040000 0
0.260000 0.040000 0
0.280000 0.040000 0
0.300000 0.040000 0
0.320000 0.040000 0
0.340000 0.040000 0
0.360000 0.040000 0
0.380000 0.040000 0
0.400000 0.040000 0
0.420000 0.040000 0
0.440000 0.040000 0
0.460000 0.040000 0
0.480000 0.040000 0
0.500000 0.040000 0
0.520000 0.040000 0
0.540000 0.040000 0
0.560000 0.040000 0
0.580000 0.040000 0
0.600000 0.040000 0
0.620000 0.040000 0
0.640000 0.040000 0
0.660000 0.040000 0
0.680000 0.040000 0
0.700000 0.040000 0
0.720000 0.040000 0
0.740000 0.040000 0
0.760000 0.040000 0
0.780000 0.040000 0
0.800000 0.040000 0
0.820000 0.040000 0
0.840000 0.040000 0
0.860000 0.040000 0
0.880000 0.040000 0
0.900000 0.040000 0
0.920000 0.040000 0
0.940000 0.040000 0
0.960000 0.040000 0
0.980000 0.040000 0
1.000000 0.040000 0
0.000000 0.060000 0
0.020000 0.060000 0
0.040000 0.060000 0
0.060000 0.060000 0
0.080000 0.060000 0
0.100000 0.060000 0
0.120000 0.060000 0
0.140000 0.060000 0
0.160000 0.060000 0
0.180000 0.060000 0
0.200000 0.060000 0
0.220000 0.060000 0
0.240000 0.060000 0
0.260000 0.060000 0
0.280000 0.060000 0
0.300000 0.060000 0
0.320000 0.060000 0
0.340000 0.060000 0
0.360000 0.060000 0
0.380000 0.060000 0
0.400000 0.060000 0
0.420000 0.060000 0
0.440000 0.060000 0
0.460000 0.060000 0
0.480000 0.060000 0
0.500000 0.060000 0
0.520000 0.060000 0
0.540000 0.060000 0
0.560000 0.060000 0
0.580000 0.060000 0
0.600000 0.060000 0
0.620000 0.060000 0
0.640000 0.060000 0
0.660000 0.060000 0
0.680000 0.060000 0
0.700000 0.060000 0
0.720000 0.060000 0
0.740000 0.060000 0
0.760000 0.060000 0
0.780000 0.060000 0
0.800000 0.060000 0
0.820000 0.060000 0
0.840000 0.060000 0
0.860000 0.060000 0
0.880000 0.060000 0
0.900000 0.060000 0
0.920000 0.060000 0
0.940000 0.060000 0
0.960000 0.060000 0
0.980000 0.060000 0
1.000000 0.060000 0
0.000000 0.080000 0
0.020000 0.080000 0
0.040000 0.080000 0
0.060000 0.080000 0
0.080000 0.080000 0
0.100000 0.080000 0
0.120000 0.080000 0
0.140000 0.080000 0
0.160000 0.080000 0
0.180000 0.080000 0
0.200000 0.080000 0
0.220000 0.080000 0
0.240000 0.080000 0
0.260000 0.080000 0
0.280000 0.080000 0
0.300000 0.080000 0
0.320000 0.080000 0
0.340000 0.080000 0
0.360000 0.080000 0
0.380000 0.080000 0
0.400000 0.080000 0
0.420000 0.080000 0
0.440000 0.080000 0
0.460000 0.080000 0
0.480000 0.080000 0
0.500000 0.080000 0
0.520000 0.080000 0
0.540000 0.080000 0
0.560000 0.080000 0
0.580000 0.080000 0
0.600000 0.080000 0
0.620000 0.080000 0
0.640000 0.080000 0
0.660000 0.080000 0
0.680000 0.080000 0
0.700000 0.080000 0
0.720000 0.080000 0
0.740000 0.080000 0
0.760000 0.080000 0
0.780000 0.080000 0
0.800000 0.080000 0
0.820000 0.080000 0
0.840000 0.080000 0
0.860000 0.080000 0
0.880000 0.080000 0
0.900000 0.080000 0
0.920000 0.080000 0
0.940000 0.080000 0
0.960000 0.080000 0
0.980000 0.080000 0
1.000000 0.080000 0
0.000000 0.100000 0
0.020000 0.100000 0
0.040000 0.100000 0
0.060000 0.100000 0
0.080000 0.100000 0
0.100000 0.100000 0
0.120000 0.100000 0
0.140000 0.100000 0
0.160000 0.100000 0
0.180000 0.100000 0
0.200000 0.100000 0
0.220000 0.100000 0
0.240000 0.100000 0
0.260000 0.100000 0
0.280000 0.100000 0
0.300000 0.100000 0
0.320000 0.100000 0
0.340000 0.100000 0
0.360000 0.100000 0
0.380000 0.100000 0
0.400000 0.100000 0
0.420000 0.100000 0
0.440000 0.100000 0
0.460000 0.100000 0
0.480000 0.100000 0
0.500000 0.100000 0
0.520000 0.100000 0
0.540000 0.100000 0
0.560000 0.100000 0
0.580000 0.100000 0
0.600000 0.100000 0
0.620000 0.100000 0
0.640000 0.100000 0
0.660000 0.100000 0
0.680000 0.100000 0
0.700000 0.100000 0
0.720000 0.100000 0
0.740000 0.100000 0
0.760000 0.100000 0
0.780000 0.100000 0
0.800000 0.100000 0
0.820000 0.100000 0
0.840000 0.100000 0
0.860000 0.100000 0
0.880000 0.100000 0
0.900000 0.100000 0
0.920000 0.100000 0
0.940000 0.100000 0
0.960000 0.100000 0
0.980000 0.100000 0
1.000000 0.100000 0
0.000000 0.120000 0
0.020000 0.120000 0
0.040000 0.120000 0
0.060000 0.120000 0
0.080000 0.120000 0
0.100000 0.120000 0
0.120000 0.120000 0
0.140000 0.120000 0
0.160000 0.120000 0
0.180000 0.120000 0
0.200000 0.120000 0
0.220000 0.120000 0
0.240000 0.120000 0
0.260000 0.120000 0
0.280000 0.120000 0
0.300000 0.120000 0
0.320000 0.120000 0
0.340000 0.120000 0
0.360000 0.120000 0
0.380000 0.120000 0
0.400000 0.120000 0
0.420000 0.120000 0
0.440000 0.120000 0
0.460000 0.120000 0
0.480000 0.120000 0
0.500000 0.120000 0
0.520000 0.120000 0
0.540000 0.120000 0
0.560000 0.120000 0
0.580000 0.120000 0
0.600000 0.120000 0
0.620000 0.120000 0
0.640000 0.120000 0
0.660000 0.120000 0
0.680000 0.120000 0
0.700000 0.120000 0
0.720000 0.120000 0
0.740000 0.120000 0
0.760000 0.120000 0
0.780000 0.120000 0
0.800000 0.120000 0
0.820000 0.120000 0
0.840000 0.120000 0
0.860000 0.120000 0
0.880000 0.120000 0
0.900000 0.120000 0
0.920000 0.120000 0
0.940000 0.120000 0
0.960000 0.120000 0
0.980000 0.120000 0
1.000000 0.120000 0
0.000000 0.140000 0
0.020000 0.140000 0
0.040000 0.140000 0
0.060000 0.140000 0
0.080000 0.140000 0
0.100000 0.140000 0
0.120000 0.140000 0
0.140000 0.140000 0
0.160000 0.140000 0
0.180000 0.140000 0
0.200000 0.140000 0
0.220000 0.140000 0
0.240000 0.140000 0
0.260000 0.140000 0
0.280000 0.140000 0
0.300000 0.140000 0
0.320000 0.140000 0
0.340000 0.140000 0
0.360000 0.140000 0
0.380000 0.140000 0
0.400000 0.140000 0
0.420000 0.140000 0
0.440000 0.140000 0
0.460000 0.140000 0
0.480000 0.140000 0
0.500000 0.140000 0
0.520000 0.140000 0
0.540000 0.140000 0
0.560000 0.140000 0
0.580000 0.140000 0
0.600000 0.140000 0
0.620000 0.140000 0
0.640000 0.140000 0
0.660000 0.140000 0
0.680000 0.140000 0
0.700000 0.140000 0
0.720000 0.140000 0
0.740000 0.140000 0
0.760000 0.140000 0
0.780000 0.140000 0
0.800000 0.140000 0
0.820000 0.140000 0
0.840000 0.140000 0
0.860000 0.140000 0
0.880000 0.140000 0
0.900000 0.140000 0
0.920000 0.140000 0
0.940000 0.140000 0
0.960000 0.140000 0
0.980000 0.140000 0
1.000000 0.140000 0
0.000000 0.160000 0
0.020000 0.160000 0
0.040000 0.160000 0
0.060000 0.160000 0
0.080000 0.160000 0
0.100000 0.160000 0
0.120000 0.160000 0
0.140000 0.160000 0
0.160000 0.160000 0
0.180000 0.160000 0
0.200000 0.160000 0
0.220000 0.160000 0
0.240000 0.160000 0
0.260000 0.160000 0
0.280000 0.160000 0
0.300000 0.160000 0
0.320000 0.160000 0
0.340000 0.160000 0
0.360000 0.160000 0
0.380000 0.160000 0
0.400000 0.160000 0
0.420000 0.160000 0
0.440000 0.160000 0
0.460000 0.160000 0
0.480000 0.160000 0
0.500000 0.160000 0
0.520000 0.160000 0
0.540000 0.160000 0
0.560000 0.160000 0
0.580000 0.160000 0
0.600000 0.160000 0
0.620000 0.160000 0
0.640000 0.160000 0
0.660000 0.160000 0
0.680000 0.160000 0
0.700000 0.160000 0
0.720000 0.160000 0
0.740000 0.160000 0
0.760000 0.160000 0
0.780000 0.160000 0
0.800000 0.160000 0
0.820000 0.160000 0
0.840000 0.160000 0
0.860000 0.160000 0
0.880000 0.160000 0
0.900000 0.160000 0
0.920000 0.160000 0
0.940000 0.160000 0
0.960000 0.160000 0
0.980000 0.160000 0
1.000000 0.160000 0
0.000000 0.180000 0
0.020000 0.180000 0
0.040000 0.180000 0
0.060000 0.180000 0
0.080000 0.180000 0
0.100000 0.180000 0
0.120000 0.180000 0
0.140000 0.180000 0
0.160000 0.180000 0
0.180000 0.180000 0
0.200000 0.180000 0
0.220000 0.180000 0
0.240000 0.180000 0
0.260000 0.180000 0
0.280000 0.180000 0
0.300000 0.180000 0
0.320000 0.180000 0
0.340000 0.180000 0
0.360000 0.180000 0
0.380000 0.180000 0
0.400000 0.180000 0
0.420000 0.180000 0
0.440000 0.180000 0
0.460000 0.180000 0
0.480000 0.180000 0
0.500000 0.180000 0
0.520000 0.180000 0
0.540000 0.180000 0
0.560000 0.180000 0
0.580000 0.180000 0
0.600000 0.180000 0
0.620000 0.180000 0
[...]
POINT_DATA 2601 

VECTORS velocity float
0.000000 0.000000 0
0.000000 0.000000 0
0.000001 0.000000 0
0.000000 0.000000 0
-0.000000 0.000000 0
-0.000000 0.000000 0
-0.000000 0.000000 0
0.000000 0.000000 0
0.000000 0.000000 0
0.000000 0.000000 0
0.000000 0.000000 0
-0.000000 0.000000 0
-0.000000 0.000000 0
-0.000000 0.000000 0
-0.000000 0.000000 0
-0.000000 0.000000 0
-0.000000 0.000000 0
-0.000000 0.000000 0
-0.000000 0.000000 0
-0.000000 0.000000 0
-0.000000 0.000000 0
-0.000000 0.000000 0
-0.000000 0.000000 0
-0.000000 0.000000 0
-0.000000 0.000000 0
-0.000000 0.000000 0
-0.000000 0.000000 0
-0.000000 0.000000 0
-0.000000 0.000000 0
-0.000000 0.000000 0
-0.000000 0.000000 0
-0.000000 0.000000 0
-0.000000 0.000000 0
-0.000000 0.000000 0
-0.000000 0.000000 0
-0.000000 0.000000 0
-0.000000 0.000000 0
-0.000000 0.000000 0
-0.000000 0.000000 0
0.000000 0.000000 0
0.000000 0.000000 0
0.000000 0.000000 0
0.000000 0.000000 0
-0.000000 0.000000 0
-0.000000 0.000000 0
0.000000 0.000000 0
0.000000 0.000000 0
0.000000 0.000000 0
0.000000 0.000000 0
0.000000 0.000000 0
0.000000 0.000000 0
0.000000 0.000000 0
0.000060 -0.000059 0
0.000082 -0.000023 0
-0.000011 0.000054 0
-0.000250 0.000141 0
-0.000635 0.000225 0
-0.001156 0.000299 0
-0.001795 0.000360 0
-0.002532 0.000410 0
-0.003346 0.000447 0
-0.004218 0.000474 0
-0.005130 0.000491 0
-0.006066 0.000500 0
-0.007012 0.000502 0
-0.007953 0.000497 0
-0.008876 0.000485 0
-0.009769 0.000467 0
-0.010621 0.000442 0
-0.011418 0.000411 0
-0.012150 0.000374 0
-0.012804 0.000331 0
-0.013368 0.000281 0
-0.013832 0.000225 0
-0.014185 0.000163 0
-0.014416 0.000096 0
-0.014519 0.000024 0
-0.014485 -0.000051 0
-0.014311 -0.000128 0
-0.013995 -0.000205 0
-0.013538 -0.000281 0
-0.012945 -0.000354 0
-0.012224 -0.000421 0
-0.011386 -0.000482 0
-0.010447 -0.000532 0
-0.009426 -0.000571 0
-0.008345 -0.000597 0
-0.007228 -0.000609 0
-0.006104 -0.000605 0
-0.004998 -0.000586 0
-0.003941 -0.000550 0
-0.002957 -0.000500 0
-0.002073 -0.000437 0
-0.001311 -0.000361 0
-0.000689 -0.000277 0
-0.000218 -0.000188 0
0.000096 -0.000098 0
0.000258 -0.000013 0
0.000283 0.000056 0
0.000206 0.000095 0
0.000082 0.000082 0
0.000000 0.000000 0
0.000000 0.000001 0
0.000025 -0.000082 0
-0.000072 0.000071 0
-0.000378 0.000331 0
-0.000930 0.000623 0
-0.001731 0.000906 0
-0.002765 0.001160 0
-0.004003 0.001376 0
-0.005414 0.001551 0
-0.006963 0.001686 0
-0.008615 0.001784 0
-0.010340 0.001848 0
-0.012107 0.001882 0
-0.013889 0.001886 0
-0.015660 0.001864 0
-0.017396 0.001817 0
-0.019071 0.001745 0
-0.020664 0.001649 0
-0.022152 0.001529 0
-0.023513 0.001385 0
-0.024724 0.001218 0
-0.025764 0.001028 0
-0.026614 0.000816 0
-0.027253 0.000584 0
-0.027667 0.000334 0
-0.027839 0.000069 0
-0.027759 -0.000208 0
-0.027421 -0.000490 0
-0.026822 -0.000773 0
-0.025965 -0.001050 0
-0.024859 -0.001315 0
-0.023520 -0.001559 0
-0.021969 -0.001777 0
-0.020233 -0.001960 0
-0.018349 -0.002102 0
-0.016354 -0.002197 0
-0.014293 -0.002241 0
-0.012213 -0.002230 0
-0.010165 -0.002163 0
-0.008196 -0.002041 0
-0.006355 -0.001867 0
-0.004687 -0.001646 0
-0.003230 -0.001385 0
-0.002015 -0.001093 0
-0.001063 -0.000785 0
-0.000382 -0.000476 0
0.000035 -0.000187 0
0.000215 0.000052 0
0.000209 0.000201 0
0.000098 0.000206 0
0.000000 0.000000 0
0.000000 0.000000 0
-0.000055 0.000012 0
-0.000344 0.000378 0
-0.000934 0.000911 0
-0.001854 0.001495 0
-0.003101 0.002061 0
-0.004652 0.002572 0
-0.006472 0.003010 0
-0.008519 0.003368 0
-0.010748 0.003647 0
-0.013114 0.003851 0
-0.015576 0.003983 0
-0.018093 0.004050 0
-0.020625 0.004055 0
-0.023137 0.004003 0
-0.025594 0.003896 0
-0.027962 0.003735 0
-0.030208 0.003523 0
-0.032301 0.003260 0
-0.034209 0.002945 0
-0.035902 0.002582 0
-0.037351 0.002171 0
-0.038529 0.001714 0
-0.039409 0.001216 0
-0.039970 0.000681 0
-0.040194 0.000117 0
-0.040066 -0.000468 0
-0.039578 -0.001065 0
-0.038728 -0.001661 0
-0.037522 -0.002244 0
-0.035972 -0.002799 0
-0.034099 -0.003312 0
-0.031935 -0.003768 0
-0.029515 -0.004152 0
-0.026888 -0.004451 0
-0.024106 -0.004653 0
-0.021228 -0.004749 0
-0.018319 -0.004734 0
-0.015443 -0.004603 0
-0.012667 -0.004360 0
-0.010056 -0.004009 0
-0.007669 -0.003562 0
-0.005558 -0.003033 0
-0.003765 -0.002444 0
-0.002318 -0.001821 0
-0.001229 -0.001196 0
-0.000490 -0.000610 0
-0.000071 -0.000118 0
0.000085 0.000212 0
0.000067 0.000291 0
0.000000 0.000000 0
0.000000 0.000000 0
-0.000151 0.000261 0
-0.000667 0.000950 0
-0.001583 0.001842 0
-0.002906 0.002791 0
-0.004621 0.003705 0
-0.006696 0.004531 0
-0.009087 0.005242 0
-0.011745 0.005826 0
-0.014616 0.006281 0
-0.017648 0.006613 0
-0.020790 0.006827 0
-0.023993 0.006931 0
-0.027208 0.006931 0
-0.030391 0.006833 0
-0.033498 0.006641 0
-0.036487 0.006359 0
-0.039316 0.005988 0
-0.041948 0.005530 0
-0.044341 0.004987 0
-0.046460 0.004360 0
-0.048269 0.003654 0
-0.049733 0.002874 0
-0.050824 0.002026 0
-0.051514 0.001119 0
-0.051782 0.000164 0
-0.051611 -0.000823 0
-0.050994 -0.001827 0
-0.049927 -0.002829 0
-0.048417 -0.003807 0
-0.046482 -0.004737 0
-0.044148 -0.005597 0
-0.041450 -0.006361 0
-0.038435 -0.007006 0
-0.035158 -0.007511 0
-0.031683 -0.007857 0
-0.028082 -0.008028 0
-0.024430 -0.008016 0
-0.020808 -0.007815 0
-0.017295 -0.007428 0
-0.013970 -0.006865 0
-0.010904 -0.006144 0
-0.008160 -0.005289 0
-0.005792 -0.004334 0
-0.003834 -0.003321 0
-0.002304 -0.002303 0
-0.001197 -0.001344 0
-0.000485 -0.000523 0
-0.000110 0.000063 0
0.000012 0.000290 0
0.000000 0.000000 0
0.000000 -0.000000 0
-0.000251 0.000678 0
-0.001008 0.001810 0
-0.002267 0.003150 0
-0.004011 0.004533 0
-0.006207 0.005851 0
-0.008809 0.007038 0
-0.011764 0.008058 0
-0.015015 0.008897 0
-0.018501 0.009551 0
-0.022163 0.010025 0
-0.025941 0.010328 0
-0.029781 0.010467 0
-0.033625 0.010453 0
-0.037424 0.010292 0
-0.041125 0.009991 0
-0.044679 0.009554 0
-0.048039 0.008984 0
-0.051158 0.008284 0
-0.053992 0.007458 0
-0.056497 0.006509 0
-0.058632 0.005444 0
-0.060359 0.004269 0
-0.061644 0.002996 0
-0.062456 0.001639 0
-0.062772 0.000215 0
-0.062573 -0.001257 0
-0.061849 -0.002750 0
-0.060600 -0.004237 0
-0.058832 -0.005688 0
-0.056565 -0.007069 0
-0.053829 -0.008345 0
-0.050663 -0.009481 0
-0.047121 -0.010444 0
-0.043266 -0.011203 0
-0.039168 -0.011729 0
-0.034910 -0.012002 0
-0.030577 -0.012007 0
-0.026262 -0.011738 0
-0.022055 -0.011198 0
-0.018047 -0.010401 0
-0.014321 -0.009371 0
-0.010952 -0.008145 0
-0.008002 -0.006771 0
-0.005516 -0.005309 0
-0.003517 -0.003833 0
-0.002009 -0.002429 0
-0.000967 -0.001205 0
-0.000341 -0.000284 0
-0.000053 0.000180 0
0.000000 0.000000 0
0.000000 -0.000000 0
-0.000348 0.001268 0
-0.001348 0.002967 0
-0.002956 0.004846 0
-0.005127 0.006731 0
-0.007807 0.008502 0
-0.010934 0.010088 0
-0.014445 0.011448 0
-0.018273 0.012562 0
-0.022351 0.013429 0
-0.026613 0.014053 0
-0.030994 0.014445 0
-0.035431 0.014615 0
-0.039865 0.014574 0
-0.044235 0.014332 0
-0.048487 0.013897 0
-0.052565 0.013273 0
-0.056416 0.012467 0
-0.059988 0.011483 0
-0.063230 0.010325 0
-0.066096 0.009000 0
-0.068538 0.007517 0
-0.070516 0.005886 0
-0.071991 0.004123 0
-0.072929 0.002247 0
-0.073306 0.000281 0
-0.073100 -0.001746 0
-0.072300 -0.003801 0
-0.070905 -0.005846 0
-0.068922 -0.007841 0
-0.066372 -0.009741 0
-0.063286 -0.011499 0
-0.059709 -0.013068 0
-0.055696 -0.014404 0
-0.051315 -0.015465 0
-0.046646 -0.016213 0
-0.041776 -0.016619 0
-0.036803 -0.016664 0
-0.031826 -0.016337 0
-0.026948 -0.015643 0
-0.022270 -0.014599 0
-0.017888 -0.013238 0
-0.013888 -0.011608 0
-0.010343 -0.009771 0
-0.007308 -0.007806 0
-0.004817 -0.005810 0
-0.002880 -0.003895 0
-0.001484 -0.002191 0
-0.000586 -0.000850 0
-0.000121 -0.000050 0
0.000000 0.000000 0
0.000000 -0.000000 0
-0.000442 0.002026 0
-0.001679 0.004419 0
-0.003633 0.006930 0
-0.006228 0.009383 0
-0.009386 0.011657 0
-0.013031 0.013676 0
-0.017087 0.015398 0
-0.021477 0.016804 0
-0.026127 0.017892 0
-0.030965 0.018668 0
-0.035920 0.019146 0
-0.040924 0.019338 0
-0.045913 0.019257 0
-0.050823 0.018915 0
-0.055593 0.018321 0
-0.060164 0.017483 0
-0.064477 0.016407 0
-0.068477 0.015099 0
-0.072109 0.013566 0
-0.075321 0.011817 0
-0.078064 0.009864 0
-0.080292 0.007722 0
-0.081963 0.005410 0
-0.083043 0.002954 0
-0.083501 0.000385 0
-0.083315 -0.002262 0
-0.082474 -0.004945 0
-0.080972 -0.007615 0
-0.078819 -0.010221 0
-0.076033 -0.012704 0
-0.072646 -0.015008 0
-0.068704 -0.017072 0
-0.064266 -0.018838 0
-0.059404 -0.020253 0
-0.054200 -0.021268 0
-0.048751 -0.021845 0
-0.043160 -0.021958 0
-0.037537 -0.021593 0
-0.031995 -0.020754 0
-0.026646 -0.019460 0
-0.021600 -0.017753 0
-0.016953 -0.015690 0
-0.012792 -0.013352 0
-0.009185 -0.010836 0
-0.006176 -0.008260 0
-0.003789 -0.005762 0
-0.002019 -0.003499 0
-0.000837 -0.001647 0
-0.000188 -0.000406 0
0.000000 0.000000 0
0.000000 0.000000 0
-0.000531 0.002948 0
-0.001998 0.006159 0
-0.004288 0.009395 0
-0.007296 0.012483 0
-0.010922 0.015305 0
-0.015074 0.017789 0
-0.019660 0.019894 0
-0.024596 0.021603 0
-0.029798 0.022917 0
-0.035189 0.023846 0
-0.040694 0.024404 0
-0.046239 0.024608 0
-0.051757 0.024473 0
-0.057181 0.024012 0
-0.062445 0.023238 0
-0.067486 0.022158 0
-0.072243 0.020781 0
-0.076657 0.019115 0
-0.080669 0.017169 0
-0.084224 0.014955 0
-0.087270 0.012487 0
-0.089757 0.009785 0
-0.091640 0.006874 0
-0.092883 0.003784 0
-0.093451 0.000554 0
-0.093321 -0.002772 0
-0.092476 -0.006144 0
-0.090912 -0.009501 0
-0.088632 -0.012781 0
-0.085657 -0.015914 0
-0.082015 -0.018827 0
-0.077754 -0.021448 0
-0.072931 -0.023705 0
-0.067622 -0.025531 0
-0.061913 -0.026865 0
-0.055906 -0.027659 0
-0.049710 -0.027878 0
-0.043444 -0.027502 0
-0.037234 -0.026533 0
-0.031202 -0.024995 0
-0.025471 -0.022932 0
-0.020154 -0.020415 0
-0.015350 -0.017539 0
-0.011142 -0.014423 0
-0.007589 -0.011206 0
-0.004728 -0.008052 0
-0.002567 -0.005143 0
-0.001090 -0.002681 0
-0.000255 -0.000887 0
0.000000 0.000000 0
0.000000 0.000000 0
-0.000616 0.004025 0
-0.002303 0.008176 0
-0.004916 0.012227 0
-0.008323 0.016017 0
-0.012402 0.019434 0
-0.017043 0.022413 0
-0.022142 0.024920 0
-0.027604 0.026942 0
-0.033339 0.028485 0
-0.039262 0.029564 0
-0.045293 0.030196 0
-0.051358 0.030402 0
-0.057383 0.030198 0
-0.063299 0.029602 0
-0.069038 0.028626 0
-0.074535 0.027282 0
-0.079725 0.025578 0
-0.084545 0.023525 0
-0.088936 0.021133 0
-0.092838 0.018418 0
-0.096197 0.015396 0
-0.098960 0.012092 0
-0.101079 0.008536 0
-0.102514 0.004765 0
-0.103227 0.000823 0
-0.103191 -0.003237 0
-0.102388 -0.007354 0
-0.100807 -0.011459 0
-0.098450 -0.015476 0
-0.095333 -0.019322 0
-0.091483 -0.022911 0
-0.086945 -0.026156 0
-0.081776 -0.028970 0
-0.076051 -0.031270 0
-0.069861 -0.032984 0
-0.063310 -0.034049 0
-0.056515 -0.034419 0
-0.049604 -0.034069 0
-0.042712 -0.032996 0
-0.035976 -0.031223 0
-0.029534 -0.028801 0
-0.023514 -0.025812 0
-0.018033 -0.022364 0
-0.013190 -0.018597 0
-0.009062 -0.014674 0
-0.005701 -0.010784 0
-0.003131 -0.007137 0
-0.001347 -0.003960 0
-0.000321 -0.001496 0
0.000000 0.000000 0
0.000000 0.000000 0
-0.000696 0.005251 0
-0.002592 0.010458 0
-0.005512 0.015414 0
-0.009300 0.019969 0
-0.013814 0.024026 0
-0.018924 0.027530 0
-0.024516 0.030455 0
-0.030483 0.032799 0
-0.036728 0.034574 0
-0.043161 0.035800 0
-0.049698 0.036500 0
-0.056261 0.036698 0
-0.062774 0.036414 0
-0.069166 0.035668 0
-0.075366 0.034473 0
-0.081307 0.032844 0
-0.086923 0.030791 0
-0.092149 0.028326 0
-0.096922 0.025462 0
-0.101182 0.022216 0
-0.104870 0.018608 0
-0.107932 0.014667 0
-0.110316 0.010427 0
-0.111977 0.005932 0
-0.112876 0.001232 0
-0.112980 -0.003612 0
-0.112266 -0.008528 0
-0.110719 -0.013439 0
-0.108336 -0.018255 0
-0.105128 -0.022881 0
-0.101119 -0.027215 0
-0.096348 -0.031155 0
-0.090871 -0.034598 0
-0.084763 -0.037445 0
-0.078113 -0.039607 0
-0.071031 -0.041006 0
-0.063639 -0.041584 0
-0.056074 -0.041305 0
-0.048483 -0.040161 0
-0.041017 -0.038172 0
-0.033829 -0.035394 0
-0.027068 -0.031916 0
-0.020869 -0.027863 0
-0.015351 -0.023393 0
-0.010612 -0.018695 0
-0.006720 -0.013983 0
-0.003717 -0.009497 0
-0.001612 -0.005491 0
-0.000388 -0.002234 0
0.000000 0.000000 0
0.000000 0.000000 0
-0.000771 0.006617 0
-0.002863 0.012992 0
-0.006074 0.018936 0
-0.010223 0.024318 0
-0.015149 0.029059 0
-0.020706 0.033116 0
-0.026767 0.036478 0
-0.033215 0.039154 0
-0.039947 0.041163 0
-0.046867 0.042534 0
-0.053888 0.043296 0
-0.060928 0.043477 0
-0.067911 0.043103 0
-0.074762 0.042194 0
-0.081412 0.040768 0
-0.087789 0.038839 0
-0.093828 0.036420 0
-0.099462 0.033524 0
-0.104626 0.030166 0
-0.109258 0.026366 0
-0.113296 0.022146 0
-0.116683 0.017538 0
-0.119366 0.012582 0
-0.121293 0.007325 0
-0.122421 0.001826 0
-0.122714 -0.003847 0
-0.122141 -0.009615 0
-0.120683 -0.015388 0
-0.118330 -0.021066 0
-0.115086 -0.026539 0
-0.110969 -0.031692 0
-0.106014 -0.036404 0
-0.100271 -0.040555 0
-0.093812 -0.044028 0
-0.086728 -0.046716 0
-0.079128 -0.048523 0
-0.071141 -0.049376 0
-0.062913 -0.049226 0
-0.054602 -0.048053 0
-0.046376 -0.045876 0
-0.038405 -0.042750 0
-0.030858 -0.038772 0
-0.023894 -0.034081 0
-0.017656 -0.028854 0
-0.012261 -0.023305 0
-0.007802 -0.017679 0
-0.004336 -0.012245 0
-0.001891 -0.007289 0
-0.000457 -0.003108 0
0.000000 0.000000 0
0.000000 0.000000 0
-0.000842 0.008114 0
-0.003117 0.015761 0
-0.006600 0.022774 0
-0.011088 0.029043 0
-0.016400 0.034509 0
-0.022378 0.039148 0
-0.028881 0.042964 0
-0.035784 0.045980 0
-0.042976 0.048226 0
-0.050359 0.049741 0
-0.057841 0.050562 0
-0.065338 0.050721 0
-0.072771 0.050248 0
-0.080067 0.049168 0
-0.087154 0.047500 0
-0.093961 0.045261 0
-0.100421 0.042464 0
-0.106466 0.039124 0
-0.112031 0.035258 0
-0.117051 0.030886 0
-0.121462 0.026034 0
-0.125205 0.020737 0
-0.128221 0.015037 0
-0.130456 0.008987 0
-0.131862 0.002653 0
-0.132395 -0.003892 0
-0.132020 -0.010559 0
-0.130709 -0.017250 0
-0.128446 -0.023851 0
-0.125226 -0.030241 0
-0.121058 -0.036288 0
-0.115970 -0.041854 0
-0.110008 -0.046800 0
-0.103238 -0.050988 0
-0.095747 -0.054291 0
-0.087648 -0.056592 0
-0.079072 -0.057799 0
-0.070174 -0.057845 0
-0.061123 -0.056699 0
-0.052105 -0.054370 0
-0.043310 -0.050912 0
-0.034929 -0.046427 0
-0.027149 -0.041066 0
-0.020136 -0.035027 0
-0.014036 -0.028549 0
-0.008964 -0.021908 0
-0.005001 -0.015408 0
-0.002188 -0.009370 0
-0.000532 -0.004125 0
0.000000 -0.000000 0
0.000000 -0.000000 0
-0.000907 0.009734 0
-0.003352 0.018750 0
-0.007086 0.026906 0
-0.011888 0.034118 0
-0.017560 0.040349 0
-0.023929 0.045597 0
-0.030844 0.049884 0
-0.038173 0.053250 0
-0.045798 0.055738 0
-0.053616 0.057398 0
-0.061533 0.058274 0
-0.069464 0.058408 0
-0.077329 0.057833 0
-0.085053 0.056576 0
-0.092564 0.054662 0
-0.099794 0.052106 0
-0.106672 0.048925 0
-0.113132 0.045134 0
-0.119107 0.040751 0
-0.124531 0.035797 0
-0.129338 0.030300 0
-0.133466 0.024297 0
-0.136852 0.017833 0
-0.139439 0.010966 0
-0.141171 0.003765 0
-0.141999 -0.003689 0
-0.141880 -0.011301 0
-0.140779 -0.018962 0
-0.138669 -0.026550 0
-0.135537 -0.033927 0
-0.131381 -0.040947 0
-0.126221 -0.047454 0
-0.120093 -0.053288 0
-0.113057 -0.058289 0
-0.105197 -0.062305 0
-0.096623 -0.065198 0
-0.087470 -0.066850 0
-0.077900 -0.067175 0
-0.068094 -0.066122 0
-0.058254 -0.063690 0
-0.048593 -0.059925 0
-0.039328 -0.054933 0
-0.030674 -0.048875 0
-0.022827 -0.041967 0
-0.015965 -0.034477 0
-0.010229 -0.026714 0
-0.005724 -0.019021 0
-0.002512 -0.011758 0
-0.000612 -0.005296 0
0.000000 -0.000000 0
0.000000 -0.000000 0
-0.000966 0.011466 0
-0.003565 0.021941 0
-0.007530 0.031310 0
-0.012619 0.039517 0
-0.018620 0.046550 0
-0.025349 0.052432 0
-0.032645 0.057208 0
-0.040367 0.060933 0
-0.048393 0.063669 0
-0.056616 0.065476 0
-0.064940 0.066409 0
-0.073279 0.066516 0
-0.081552 0.065837 0
-0.089686 0.064404 0
-0.097608 0.062241 0
-0.105249 0.059368 0
-0.112541 0.055802 0
-0.119416 0.051559 0
-0.125808 0.046656 0
-0.131650 0.041117 0
-0.136874 0.034969 0
-0.141415 0.028251 0
-0.145207 0.021010 0
-0.148187 0.013306 0
-0.150294 0.005213 0
-0.151473 -0.003182 0
-0.151670 -0.011779 0
-0.150843 -0.020461 0
-0.148955 -0.029094 0
-0.145979 -0.037529 0
-0.141905 -0.045604 0
-0.136740 -0.053142 0
-0.130509 -0.059964 0
-0.123263 -0.065884 0
-0.115080 -0.070724 0
-0.106066 -0.074319 0
-0.096358 -0.076522 0
-0.086121 -0.077222 0
-0.075550 -0.076345 0
-0.064864 -0.073871 0
-0.054298 -0.069837 0
-0.044098 -0.064346 0
-0.034510 -0.057567 0
-0.025766 -0.049736 0
-0.018076 -0.041148 0
-0.011616 -0.032149 0
-0.006519 -0.023124 0
-0.002869 -0.014482 0
-0.000701 -0.006637 0
0.000000 -0.000000 0
0.000000 -0.000000 0
-0.001019 0.013299 0
-0.003757 0.025314 0
-0.007928 0.035960 0
-0.013275 0.045209 0
-0.019574 0.053080 0
-0.026629 0.059621 0
-0.034269 0.064902 0
-0.042349 0.068998 0
-0.050741 0.071988 0
-0.059336 0.073945 0
-0.068036 0.074937 0
-0.076753 0.075020 0
-0.085409 0.074239 0
-0.093928 0.072632 0
-0.102241 0.070224 0
-0.110280 0.067039 0
-0.117976 0.063093 0
-0.125264 0.058402 0
-0.132076 0.052984 0
-0.138346 0.046863 0
-0.144004 0.040065 0
-0.148982 0.032629 0
-0.153211 0.024605 0
-0.156624 0.016053 0
-0.159153 0.007050 0
-0.160735 -0.002313 0
-0.161310 -0.011930 0
-0.160823 -0.021678 0
-0.159226 -0.031414 0
-0.156481 -0.040976 0
-0.152565 -0.050186 0
-0.147469 -0.058851 0
-0.141207 -0.066764 0
-0.133819 -0.073717 0
-0.125372 -0.079502 0
-0.115966 -0.083920 0
-0.105735 -0.086796 0
-0.094851 -0.087982 0
-0.083516 -0.087380 0
-0.071966 -0.084942 0
-0.060461 -0.080690 0
-0.049278 -0.074721 0
-0.038696 -0.067207 0
-0.028986 -0.058400 0
-0.020399 -0.048627 0
-0.013148 -0.038272 0
-0.007400 -0.027768 0
-0.003266 -0.017575 0
-0.000801 -0.008165 0
0.000000 -0.000000 0
0.000000 0.000000 0
-0.001065 0.015222 0
-0.003925 0.028850 0
-0.008277 0.040829 0
-0.013853 0.051163 0
-0.020414 0.059903 0
-0.027757 0.067127 0
-0.035703 0.072928 0
-0.044102 0.077406 0
-0.052822 0.080657 0
-0.061752 0.082771 0
-0.070791 0.083826 0
-0.079854 0.083889 0
-0.088860 0.083012 0
-0.097738 0.081236 0
-0.106418 0.078592 0
-0.114833 0.075103 0
-0.122919 0.070787 0
-0.130610 0.065659 0
-0.137839 0.059738 0
-0.144539 0.053044 0
-0.150641 0.045605 0
-0.156075 0.037458 0
-0.160768 0.028652 0
-0.164648 0.019248 0
-0.167641 0.009324 0
-0.169678 -0.001026 0
-0.170687 -0.011692 0
-0.170606 -0.022545 0
-0.169373 -0.033435 0
-0.166937 -0.044190 0
-0.163260 -0.054616 0
-0.158317 -0.064500 0
-0.152108 -0.073613 0
-0.144656 -0.081719 0
-0.136018 -0.088578 0
-0.126282 -0.093955 0
-0.115580 -0.097637 0
-0.104080 -0.099441 0
-0.091996 -0.099229 0
-0.079578 -0.096925 0
-0.067110 -0.092525 0
-0.054898 -0.086112 0
-0.043263 -0.077858 0
-0.032519 -0.068032 0
-0.022960 -0.056986 0
-0.014845 -0.045149 0
-0.008380 -0.033006 0
-0.003710 -0.021080 0
-0.000914 -0.009903 0
0.000000 -0.000000 0
0.000000 0.000000 0
-0.001104 0.017224 0
-0.004068 0.032527 0
-0.008575 0.045887 0
-0.014345 0.057345 0
-0.021132 0.066984 0
-0.028723 0.074910 0
-0.036935 0.081247 0
-0.045610 0.086117 0
-0.054617 0.089637 0
-0.063839 0.091914 0
-0.073178 0.093039 0
-0.082546 0.093089 0
-0.091867 0.092124 0
-0.101069 0.090189 0
-0.110084 0.087320 0
-0.118850 0.083540 0
-0.127302 0.078869 0
-0.135378 0.073321 0
-0.143011 0.066914 0
-0.150137 0.059665 0
-0.156685 0.051601 0
-0.162583 0.042756 0
-0.167758 0.033178 0
-0.172132 0.022927 0
-0.175627 0.012080 0
-0.178164 0.000733 0
-0.179663 -0.011002 0
-0.180050 -0.022993 0
-0.179253 -0.035082 0
-0.177206 -0.047090 0
-0.173854 -0.058807 0
-0.169156 -0.070002 0
-0.163093 -0.080425 0
-0.155671 -0.089807 0
-0.146929 -0.097876 0
-0.136945 -0.104358 0
-0.125838 -0.108998 0
-0.113776 -0.111566 0
-0.100975 -0.111882 0
-0.087699 -0.109829 0
-0.074254 -0.105370 0
-0.060981 -0.098567 0
-0.048239 -0.089586 0
-0.036391 -0.078703 0
-0.025784 -0.066301 0
-0.016727 -0.052852 0
-0.009473 -0.038903 0
-0.004208 -0.025042 0
-0.001040 -0.011875 0
0.000000 -0.000000 0
0.000000 0.000000 0
-0.001136 0.019290 0
-0.004184 0.036321 0
-0.008818 0.051106 0
-0.014748 0.063720 0
-0.021722 0.074281 0
-0.029519 0.082930 0
-0.037952 0.089816 0
-0.046859 0.095088 0
-0.056105 0.098885 0
-0.065574 0.101332 0
-0.075167 0.102534 0
-0.084797 0.102579 0
-0.094389 0.101535 0
-0.103873 0.099454 0
-0.113186 0.096374 0