# vtk DataFile Version 2.0
generated by CFD-lab course output (written by Tobias Neckel) 
ASCII

DATASET STRUCTURED_GRID
DIMENSIONS  51 51 1 
POINTS 2601 float

0.000000 0.000000 0
0.020000 0.000000 0
0.040000 0.000000 0
0.060000 0.000000 0
0.080000 0.000000 0
0.100000 0.000000 0
0.120000 0.000000 0
0.140000 0.000000 0
0.160000 0.000000 0
0.180000 0.000000 0
0.200000 0.000000 0
0.220000 0.000000 0
0.240000 0.000000 0
0.260000 0.000000 0
0.280000 0.000000 0
0.300000 0.000000 0
0.320000 0.000000 0
0.340000 0.000000 0
0.360000 0.000000 0
0.380000 0.000000 0
0.400000 0.000000 0
0.420000 0.000000 0
0.440000 0.000000 0
0.460000 0.000000 0
0.480000 0.000000 0
0.500000 0.000000 0
0.520000 0.000000 0
0.540000 0.000000 0
0.560000 0.000000 0
0.580000 0.000000 0
0.600000 0.000000 0
0.620000 0.000000 0
0.640000 0.000000 0
0.660000 0.000000 0
0.680000 0.000000 0
0.700000 0.000000 0
0.720000 0.000000 0
0.740000 0.000000 0
0.760000 0.000000 0
0.780000 0.000000 0
0.800000 0.000000 0
0.820000 0.000000 0
0.840000 0.000000 0
0.860000 0.000000 0
0.880000 0.000000 0
0.900000 0.000000 0
0.920000 0.000000 0
0.940000 0.000000 0
0.960000 0.000000 0
0.980000 0.000000 0
1.000000 0.000000 0
0.000000 0.020000 0
0.020000 0.020000 0
0.040000 0.020000 0
0.060000 0.020000 0
0.080000 0.020000 0
0.100000 0.020000 0
0.120000 0.020000 0
0.140000 0.020000 0
0.160000 0.020000 0
0.180000 0.020000 0
0.200000 0.020000 0
0.220000 0.020000 0
0.240000 0.020000 0
0.260000 0.020000 0
0.280000 0.020000 0
0.300000 0.020000 0
0.320000 0.020000 0
0.340000 0.020000 0
0.360000 0.020000 0
0.380000 0.020000 0
0.400000 0.020000 0
0.420000 0.020000 0
0.440000 0.020000 0
0.460000 0.020000 0
0.480000 0.020000 0
0.500000 0.020000 0
0.520000 0.020000 0
0.540000 0.020000 0
0.560000 0.020000 0
0.580000 0.020000 0
0.600000 0.020000 0
0.620000 0.020000 0
0.640000 0.020000 0
0.660000 0.020000 0
0.680000 0.020000 0
0.700000 0.020000 0
0.720000 0.020000 0
0.740000 0.020000 0
0.760000 0.020000 0
0.780000 0.020000 0
0.800000 0.020000 0
0.820000 0.020000 0
0.840000 0.020000 0
0.860000 0.020000 0
0.880000 0.020000 0
0.900000 0.020000 0
0.920000 0.020000 0
0.940000 0.020000 0
0.960000 0.020000 0
0.980000 0.020000 0
1.000000 0.020000 0
0.000000 0.040000 0
0.020000 0.040000 0
0.040000 0.040000 0
0.060000 0.040000 0
0.080000 0.040000 0
0.100000 0.040000 0
0.120000 0.040000 0
0.140000 0.040000 0
0.160000 0.040000 0
0.180000 0.040000 0
0.200000 0.040000 0
0.220000 0.040000 0
0.240000 0.040000 0
0.260000 0.040000 0
0.280000 0.040000 0
0.300000 0.040000 0
0.320000 0.040000 0
0.340000 0.040000 0
0.360000 0.040000 0
0.380000 0.040000 0
0.400000 0.040000 0
0.420000 0.040000 0
0.440000 0.040000 0
0.460000 0.040000 0
0.480000 0.040000 0
0.500000 0.040000 0
0.520000 0.040000 0
0.540000 0.040000 0
0.560000 0.040000 0
0.580000 0.040000 0
0.600000 0.040000 0
0.620000 0.040000 0
0.640000 0.040000 0
0.660000 0.040000 0
0.680000 0.040000 0
0.700000 0.040000 0
0.720000 0.040000 0
0.740000 0.040000 0
0.760000 0.040000 0
0.780000 0.040000 0
0.800000 0.040000 0
0.820000 0.040000 0
0.840000 0.040000 0
0.860000 0.040000 0
0.880000 0.040000 0
0.900000 0.040000 0
0.920000 0.040000 0
0.940000 0.040000 0
0.960000 0.040000 0
0.980000 0.040000 0
1.000000 0.040000 0
0.000000 0.060000 0
0.020000 0.060000 0
0.040000 0.060000 0
0.060000 0.060000 0
0.080000 0.060000 0
0.100000 0.060000 0
0.120000 0.060000 0
0.140000 0.060000 0
0.160000 0.060000 0
0.180000 0.060000 0
0.200000 0.060000 0
0.220000 0.060000 0
0.240000 0.060000 0
0.260000 0.060000 0
0.280000 0.060000 0
0.300000 0.060000 0
0.320000 0.060000 0
0.340000 0.060000 0
0.360000 0.060000 0
0.380000 0.060000 0
0.400000 0.060000 0
0.420000 0.060000 0
0.440000 0.060000 0
0.460000 0.060000 0
0.480000 0.060000 0
0.500000 0.060000 0
0.520000 0.060000 0
0.540000 0.060000 0
0.560000 0.060000 0
0.580000 0.060000 0
0.600000 0.060000 0
0.620000 0.060000 0
0.640000 0.060000 0
0.660000 0.060000 0
0.680000 0.060000 0
0.700000 0.060000 0
0.720000 0.060000 0
0.740000 0.060000 0
0.760000 0.060000 0
0.780000 0.060000 0
0.800000 0.060000 0
0.820000 0.060000 0
0.840000 0.060000 0
0.860000 0.060000 0
0.880000 0.060000 0
0.900000 0.060000 0
0.920000 0.060000 0
0.940000 0.060000 0
0.960000 0.060000 0
0.980000 0.060000 0
1.000000 0.060000 0
0.000000 0.080000 0
0.020000 0.080000 0
0.040000 0.080000 0
0.060000 0.080000 0
0.080000 0.080000 0
0.100000 0.080000 0
0.120000 0.080000 0
0.140000 0.080000 0
0.160000 0.080000 0
0.180000 0.080000 0
0.200000 0.080000 0
0.220000 0.080000 0
0.240000 0.080000 0
0.260000 0.080000 0
0.280000 0.080000 0
0.300000 0.080000 0
0.320000 0.080000 0
0.340000 0.080000 0
0.360000 0.080000 0
0.380000 0.080000 0
0.400000 0.080000 0
0.420000 0.080000 0
0.440000 0.080000 0
0.460000 0.080000 0
0.480000 0.080000 0
0.500000 0.080000 0
0.520000 0.080000 0
0.540000 0.080000 0
0.560000 0.080000 0
0.580000 0.080000 0
0.600000 0.080000 0
0.620000 0.080000 0
0.640000 0.080000 0
0.660000 0.080000 0
0.680000 0.080000 0
0.700000 0.080000 0
0.720000 0.080000 0
0.740000 0.080000 0
0.760000 0.080000 0
0.780000 0.080000 0
0.800000 0.080000 0
0.820000 0.080000 0
0.840000 0.080000 0
0.860000 0.080000 0
0.880000 0.080000 0
0.900000 0.080000 0
0.920000 0.080000 0
0.940000 0.080000 0
0.960000 0.080000 0
0.980000 0.080000 0
1.000000 0.080000 0
0.000000 0.100000 0
0.020000 0.100000 0
0.040000 0.100000 0
0.060000 0.100000 0
0.080000 0.100000 0
0.100000 0.100000 0
0.120000 0.100000 0
0.140000 0.100000 0
0.160000 0.100000 0
0.180000 0.100000 0
0.200000 0.100000 0
0.220000 0.100000 0
0.240000 0.100000 0
0.260000 0.100000 0
0.280000 0.100000 0
0.300000 0.100000 0
0.320000 0.100000 0
0.340000 0.100000 0
0.360000 0.100000 0
0.380000 0.100000 0
0.400000 0.100000 0
0.420000 0.100000 0
0.440000 0.100000 0
0.460000 0.100000 0
0.480000 0.100000 0
0.500000 0.100000 0
0.520000 0.100000 0
0.540000 0.100000 0
0.560000 0.100000 0
0.580000 0.100000 0
0.600000 0.100000 0
0.620000 0.100000 0
0.640000 0.100000 0
0.660000 0.100000 0
0.680000 0.100000 0
0.700000 0.100000 0
0.720000 0.100000 0
0.740000 0.100000 0
0.760000 0.100000 0
0.780000 0.100000 0
0.800000 0.100000 0
0.820000 0.100000 0
0.840000 0.100000 0
0.860000 0.100000 0
0.880000 0.100000 0
0.900000 0.100000 0
0.920000 0.100000 0
0.940000 0.100000 0
0.960000 0.100000 0
0.980000 0.100000 0
1.000000 0.100000 0
0.000000 0.120000 0
0.020000 0.120000 0
0.040000 0.120000 0
0.060000 0.120000 0
0.080000 0.120000 0
0.100000 0.120000 0
0.120000 0.120000 0
0.140000 0.120000 0
0.160000 0.120000 0
0.180000 0.120000 0
0.200000 0.120000 0
0.220000 0.120000 0
0.240000 0.120000 0
0.260000 0.120000 0
0.280000 0.120000 0
0.300000 0.120000 0
0.320000 0.120000 0
0.340000 0.120000 0
0.360000 0.120000 0
0.380000 0.120000 0
0.400000 0.120000 0
0.420000 0.120000 0
0.440000 0.120000 0
0.460000 0.120000 0
0.480000 0.120000 0
0.500000 0.120000 0
0.520000 0.120000 0
0.540000 0.120000 0
0.560000 0.120000 0
0.580000 0.120000 0
0.600000 0.120000 0
0.620000 0.120000 0
0.640000 0.120000 0
0.660000 0.120000 0
0.680000 0.120000 0
0.700000 0.120000 0
0.720000 0.120000 0
0.740000 0.120000 0
0.760000 0.120000 0
0.780000 0.120000 0
0.800000 0.120000 0
0.820000 0.120000 0
0.840000 0.120000 0
0.860000 0.120000 0
0.880000 0.120000 0
0.900000 0.120000 0
0.920000 0.120000 0
0.940000 0.120000 0
0.960000 0.120000 0
0.980000 0.120000 0
1.000000 0.120000 0
0.000000 0.140000 0
0.020000 0.140000 0
0.040000 0.140000 0
0.060000 0.140000 0
0.080000 0.140000 0
0.100000 0.140000 0
0.120000 0.140000 0
0.140000 0.140000 0
0.160000 0.140000 0
0.180000 0.140000 0
0.200000 0.140000 0
0.220000 0.140000 0
0.240000 0.140000 0
0.260000 0.140000 0
0.280000 0.140000 0
0.300000 0.140000 0
0.320000 0.140000 0
0.340000 0.140000 0
0.360000 0.140000 0
0.380000 0.140000 0
0.400000 0.140000 0
0.420000 0.140000 0
0.440000 0.140000 0
0.460000 0.140000 0
0.480000 0.140000 0
0.500000 0.140000 0
0.520000 0.140000 0
0.540000 0.140000 0
0.560000 0.140000 0
0.580000 0.140000 0
0.600000 0.140000 0
0.620000 0.140000 0
0.640000 0.140000 0
0.660000 0.140000 0
0.680000 0.140000 0
0.700000 0.140000 0
0.720000 0.140000 0
0.740000 0.140000 0
0.760000 0.140000 0
0.780000 0.140000 0
0.800000 0.140000 0
0.820000 0.140000 0
0.840000 0.140000 0
0.860000 0.140000 0
0.880000 0.140000 0
0.900000 0.140000 0
0.920000 0.140000 0
0.940000 0.140000 0
0.960000 0.140000 0
0.980000 0.140000 0
1.000000 0.140000 0
0.000000 0.160000 0
0.020000 0.160000 0
0.040000 0.160000 0
0.060000 0.160000 0
0.080000 0.160000 0
0.100000 0.160000 0
0.120000 0.160000 0
0.140000 0.160000 0
0.160000 0.160000 0
0.180000 0.160000 0
0.200000 0.160000 0
0.220000 0.160000 0
0.240000 0.160000 0
0.260000 0.160000 0
0.280000 0.160000 0
0.300000 0.160000 0
0.320000 0.160000 0
0.340000 0.160000 0
0.360000 0.160000 0
0.380000 0.160000 0
0.400000 0.160000 0
0.420000 0.160000 0
0.440000 0.160000 0
0.460000 0.160000 0
0.480000 0.160000 0
0.500000 0.160000 0
0.520000 0.160000 0
0.540000 0.160000 0
0.560000 0.160000 0
0.580000 0.160000 0
0.600000 0.160000 0
0.620000 0.160000 0
0.640000 0.160000 0
0.660000 0.160000 0
0.680000 0.160000 0
0.700000 0.160000 0
0.720000 0.160000 0
0.740000 0.160000 0
0.760000 0.160000 0
0.780000 0.160000 0
0.800000 0.160000 0
0.820000 0.160000 0
0.840000 0.160000 0
0.860000 0.160000 0
0.880000 0.160000 0
0.900000 0.160000 0
0.920000 0.160000 0
0.940000 0.160000 0
0.960000 0.160000 0
0.980000 0.160000 0
1.000000 0.160000 0
0.000000 0.180000 0
0.020000 0.180000 0
0.040000 0.180000 0
0.060000 0.180000 0
0.080000 0.180000 0
0.100000 0.180000 0
0.120000 0.180000 0
0.140000 0.180000 0
0.160000 0.180000 0
0.180000 0.180000 0
0.200000 0.180000 0
0.220000 0.180000 0
0.240000 0.180000 0
0.260000 0.180000 0
0.280000 0.180000 0
0.300000 0.180000 0
0.320000 0.180000 0
0.340000 0.180000 0
0.360000 0.180000 0
0.380000 0.180000 0
0.400000 0.180000 0
0.420000 0.180000 0
0.440000 0.180000 0
0.460000 0.180000 0
0.480000 0.180000 0
0.500000 0.180000 0
0.520000 0.180000 0
0.540000 0.180000 0
0.560000 0.180000 0
0.580000 0.180000 0
0.600000 0.180000 0
0.620000 0.180000 0
[...]
POINT_DATA 2601 

VECTORS velocity float
0.000000 0.000000 0
0.000000 0.000000 0
0.000000 0.000000 0
0.000000 0.000000 0
0.000000 0.000000 0
0.000000 0.000000 0
0.000000 0.000000 0
-0.000000 0.000000 0
-0.000000 0.000000 0
-0.000000 0.000000 0
-0.000000 0.000000 0
-0.000000 0.000000 0
-0.000000 0.000000 0
-0.000000 0.000000 0
-0.000000 0.000000 0
-0.000001 0.000000 0
-0.000001 0.000000 0
-0.000001 0.000000 0
-0.000001 0.000000 0
-0.000001 0.000000 0
-0.000001 0.000000 0
-0.000001 0.000000 0
-0.000001 0.000000 0
-0.000001 0.000000 0
-0.000001 0.000000 0
-0.000001 0.000000 0
-0.000001 0.000000 0
-0.000001 0.000000 0
-0.000001 0.000000 0
-0.000001 0.000000 0
-0.000001 0.000000 0
-0.000001 0.000000 0
-0.000001 0.000000 0
-0.000001 0.000000 0
-0.000001 0.000000 0
-0.000000 0.000000 0
-0.000000 0.000000 0
-0.000000 0.000000 0
-0.000000 0.000000 0
-0.000000 0.000000 0
-0.000000 0.000000 0
0.000000 0.000000 0
0.000000 0.000000 0
0.000000 0.000000 0
0.000000 0.000000 0
0.000000 0.000000 0
0.000000 0.000000 0
0.000000 0.000000 0
0.000000 0.000000 0
0.000000 0.000000 0
0.000000 0.000000 0
0.000000 -0.000000 0
0.000050 -0.000050 0
0.000060 -0.000015 0
-0.000035 0.000056 0
-0.000261 0.000135 0
-0.000617 0.000209 0
-0.001093 0.000274 0
-0.001672 0.000327 0
-0.002337 0.000370 0
-0.003070 0.000403 0
-0.003854 0.000426 0
-0.004672 0.000441 0
-0.005511 0.000449 0
-0.006357 0.000450 0
-0.007199 0.000445 0
-0.008025 0.000434 0
-0.008824 0.000418 0
-0.009585 0.000396 0
-0.010299 0.000368 0
-0.010955 0.000335 0
-0.011542 0.000297 0
-0.012051 0.000253 0
-0.012471 0.000203 0
-0.012793 0.000149 0
-0.013009 0.000090 0
-0.013112 0.000027 0
-0.013094 -0.000039 0
-0.012953 -0.000107 0
-0.012686 -0.000176 0
-0.012293 -0.000243 0
-0.011779 -0.000308 0
-0.011150 -0.000369 0
-0.010415 -0.000424 0
-0.009588 -0.000470 0
-0.008685 -0.000507 0
-0.007725 -0.000533 0
-0.006729 -0.000546 0
-0.005721 -0.000545 0
-0.004725 -0.000530 0
-0.003765 -0.000502 0
-0.002868 -0.000460 0
-0.002055 -0.000405 0
-0.001346 -0.000340 0
-0.000760 -0.000266 0
-0.000308 -0.000186 0
0.000004 -0.000105 0
0.000177 -0.000027 0
0.000224 0.000038 0
0.000173 0.000078 0
0.000072 0.000071 0
0.000000 0.000000 0
0.000000 -0.000000 0
0.000015 -0.000061 0
-0.000086 0.000085 0
-0.000376 0.000320 0
-0.000887 0.000581 0
-0.001618 0.000832 0
-0.002555 0.001055 0
-0.003672 0.001244 0
-0.004940 0.001398 0
-0.006329 0.001516 0
-0.007808 0.001601 0
-0.009351 0.001657 0
-0.010930 0.001685 0
-0.012522 0.001688 0
-0.014104 0.001667 0
-0.015654 0.001625 0
-0.017151 0.001560 0
-0.018575 0.001475 0
-0.019907 0.001369 0
-0.021126 0.001242 0
-0.022215 0.001095 0
-0.023155 0.000928 0
-0.023927 0.000742 0
-0.024515 0.000538 0
-0.024904 0.000318 0
-0.025081 0.000085 0
-0.025036 -0.000159 0
-0.024763 -0.000409 0
-0.024258 -0.000660 0
-0.023524 -0.000907 0
-0.022567 -0.001144 0
-0.021401 -0.001364 0
-0.020042 -0.001562 0
-0.018515 -0.001730 0
-0.016849 -0.001864 0
-0.015078 -0.001957 0
-0.013241 -0.002005 0
-0.011378 -0.002005 0
-0.009533 -0.001955 0
-0.007752 -0.001857 0
-0.006075 -0.001711 0
-0.004545 -0.001522 0
-0.003197 -0.001295 0
-0.002060 -0.001039 0
-0.001156 -0.000764 0
-0.000494 -0.000485 0
-0.000072 -0.000220 0
0.000132 0.000004 0
0.000160 0.000152 0
0.000081 0.000172 0
0.000000 0.000000 0
0.000000 -0.000000 0
-0.000057 0.000035 0
-0.000330 0.000376 0
-0.000875 0.000857 0
-0.001714 0.001376 0
-0.002842 0.001877 0
-0.004238 0.002327 0
-0.005870 0.002712 0
-0.007702 0.003027 0
-0.009693 0.003271 0
-0.011806 0.003448 0
-0.014002 0.003563 0
-0.016246 0.003620 0
-0.018504 0.003623 0
-0.020745 0.003576 0
-0.022937 0.003481 0
-0.025051 0.003339 0
-0.027059 0.003152 0
-0.028933 0.002920 0
-0.030646 0.002644 0
-0.032171 0.002325 0
-0.033482 0.001964 0
-0.034556 0.001563 0
-0.035370 0.001126 0
-0.035904 0.000656 0
-0.036140 0.000159 0
-0.036067 -0.000357 0
-0.035675 -0.000885 0
-0.034962 -0.001415 0
-0.033931 -0.001934 0
-0.032592 -0.002432 0
-0.030962 -0.002895 0
-0.029068 -0.003309 0
-0.026940 -0.003663 0
-0.024618 -0.003944 0
-0.022149 -0.004141 0
-0.019584 -0.004246 0
-0.016979 -0.004252 0
-0.014392 -0.004157 0
-0.011883 -0.003960 0
-0.009509 -0.003666 0
-0.007325 -0.003284 0
-0.005379 -0.002825 0
-0.003711 -0.002307 0
-0.002349 -0.001752 0
-0.001306 -0.001189 0
-0.000581 -0.000654 0
-0.000150 -0.000193 0
0.000035 0.000129 0
0.000048 0.000231 0
0.000000 0.000000 0
0.000000 -0.000000 0
-0.000142 0.000269 0
-0.000615 0.000902 0
-0.001447 0.001704 0
-0.002639 0.002547 0
-0.004179 0.003356 0
-0.006035 0.004083 0
-0.008170 0.004708 0
-0.010540 0.005221 0
-0.013098 0.005620 0
-0.015798 0.005910 0
-0.018595 0.006097 0
-0.021446 0.006187 0
-0.024309 0.006186 0
-0.027145 0.006100 0
-0.029916 0.005931 0
-0.032585 0.005683 0
-0.035116 0.005357 0
-0.037474 0.004956 0
-0.039626 0.004480 0
-0.041539 0.003932 0
-0.043181 0.003314 0
-0.044522 0.002630 0
-0.045537 0.001885 0
-0.046199 0.001088 0
-0.046490 0.000247 0
-0.046394 -0.000625 0
-0.045901 -0.001514 0
-0.045009 -0.002404 0
-0.043722 -0.003277 0
-0.042052 -0.004112 0
-0.040022 -0.004888 0
-0.037661 -0.005585 0
-0.035009 -0.006180 0
-0.032113 -0.006654 0
-0.029029 -0.006991 0
-0.025819 -0.007175 0
-0.022550 -0.007197 0
-0.019293 -0.007052 0
-0.016120 -0.006740 0
-0.013100 -0.006269 0
-0.010301 -0.005652 0
-0.007780 -0.004909 0
-0.005587 -0.004070 0
-0.003756 -0.003169 0
-0.002309 -0.002253 0
-0.001243 -0.001377 0
-0.000539 -0.000612 0
-0.000150 -0.000046 0
-0.000004 0.000207 0
0.000000 0.000000 0
0.000000 -0.000000 0
-0.000229 0.000650 0
-0.000912 0.001680 0
-0.002043 0.002880 0
-0.003603 0.004108 0
-0.005561 0.005273 0
-0.007878 0.006319 0
-0.010507 0.007217 0
-0.013396 0.007954 0
-0.016494 0.008529 0
-0.019748 0.008945 0
-0.023107 0.009211 0
-0.026521 0.009334 0
-0.029942 0.009322 0
-0.033325 0.009183 0
-0.036626 0.008920 0
-0.039801 0.008538 0
-0.042810 0.008041 0
-0.045610 0.007430 0
-0.048163 0.006708 0
-0.050430 0.005879 0
-0.052375 0.004947 0
-0.053965 0.003919 0
-0.055166 0.002802 0
-0.055953 0.001609 0
-0.056302 0.000354 0
-0.056196 -0.000946 0
-0.055624 -0.002270 0
-0.054584 -0.003594 0
-0.053079 -0.004891 0
-0.051125 -0.006132 0
-0.048745 -0.007286 0
-0.045975 -0.008323 0
-0.042858 -0.009212 0
-0.039448 -0.009924 0
-0.035809 -0.010436 0
-0.032011 -0.010725 0
-0.028132 -0.010778 0
-0.024251 -0.010587 0
-0.020452 -0.010153 0
-0.016816 -0.009485 0
-0.013419 -0.008604 0
-0.010331 -0.007539 0
-0.007609 -0.006331 0
-0.005298 -0.005031 0
-0.003423 -0.003702 0
-0.001990 -0.002423 0
-0.000983 -0.001287 0
-0.000363 -0.000406 0
-0.000064 0.000081 0
0.000000 0.000000 0
0.000000 0.000000 0
-0.000313 0.001181 0
-0.001206 0.002716 0
-0.002639 0.004394 0
-0.004569 0.006065 0
-0.006947 0.007631 0
-0.009721 0.009029 0
-0.012834 0.010226 0
-0.016229 0.011208 0
-0.019846 0.011971 0
-0.023628 0.012522 0
-0.027519 0.012869 0
-0.031462 0.013022 0
-0.035407 0.012991 0
-0.039301 0.012783 0
-0.043096 0.012407 0
-0.046743 0.011866 0
-0.050196 0.011165 0
-0.053409 0.010309 0
-0.056337 0.009300 0
-0.058939 0.008144 0
-0.061173 0.006848 0
-0.063001 0.005420 0
-0.064389 0.003874 0
-0.065305 0.002224 0
-0.065725 0.000491 0
-0.065628 -0.001302 0
-0.065003 -0.003127 0
-0.063846 -0.004950 0
-0.062161 -0.006736 0
-0.059964 -0.008446 0
-0.057280 -0.010038 0
-0.054146 -0.011472 0
-0.050611 -0.012707 0
-0.046733 -0.013703 0
-0.042582 -0.014428 0
-0.038235 -0.014853 0
-0.033777 -0.014957 0
-0.029299 -0.014731 0
-0.024893 -0.014175 0
-0.020650 -0.013302 0
-0.016659 -0.012137 0
-0.012999 -0.010719 0
-0.009737 -0.009103 0
-0.006928 -0.007356 0
-0.004605 -0.005561 0
-0.002783 -0.003816 0
-0.001454 -0.002239 0
-0.000586 -0.000965 0
-0.000125 -0.000156 0
0.000000 0.000000 0
0.000000 0.000000 0
-0.000393 0.001856 0
-0.001491 0.004006 0
-0.003221 0.006243 0
-0.005516 0.008416 0
-0.008310 0.010425 0
-0.011534 0.012206 0
-0.015123 0.013725 0
-0.019010 0.014966 0
-0.023130 0.015928 0
-0.027420 0.016617 0
-0.031818 0.017045 0
-0.036266 0.017222 0
-0.040707 0.017161 0
-0.045086 0.016871 0
-0.049348 0.016362 0
-0.053443 0.015638 0
-0.057319 0.014706 0
-0.060926 0.013571 0
-0.064216 0.012239 0
-0.067143 0.010715 0
-0.069662 0.009010 0
-0.071731 0.007134 0
-0.073312 0.005106 0
-0.074372 0.002945 0
-0.074882 0.000677 0
-0.074820 -0.001668 0
-0.074172 -0.004053 0
-0.072932 -0.006436 0
-0.071104 -0.008773 0
-0.068704 -0.011013 0
-0.065756 -0.013103 0
-0.062299 -0.014991 0
-0.058384 -0.016625 0
-0.054072 -0.017954 0
-0.049438 -0.018934 0
-0.044566 -0.019530 0
-0.039548 -0.019714 0
-0.034483 -0.019471 0
-0.029474 -0.018801 0
-0.024622 -0.017719 0
-0.020026 -0.016256 0
-0.015778 -0.014461 0
-0.011957 -0.012402 0
-0.008628 -0.010163 0
-0.005836 -0.007847 0
-0.003605 -0.005574 0
-0.001938 -0.003484 0
-0.000812 -0.001734 0
-0.000186 -0.000505 0
0.000000 0.000000 0
0.000000 0.000000 0
-0.000469 0.002671 0
-0.001764 0.005544 0
-0.003783 0.008420 0
-0.006436 0.011154 0
-0.009635 0.013648 0
-0.013300 0.015842 0
-0.017353 0.017701 0
-0.021719 0.019214 0
-0.026327 0.020381 0
-0.031107 0.021210 0
-0.035995 0.021716 0
-0.040928 0.021911 0
-0.045846 0.021810 0
-0.050689 0.021424 0
-0.055402 0.020764 0
-0.059928 0.019836 0
-0.064214 0.018648 0
-0.068207 0.017206 0
-0.071854 0.015517 0
-0.075106 0.013590 0
-0.077914 0.011436 0
-0.080235 0.009071 0
-0.082026 0.006514 0
-0.083250 0.003793 0
-0.083876 0.000938 0
-0.083879 -0.002012 0
-0.083242 -0.005015 0
-0.081957 -0.008017 0
-0.080026 -0.010964 0
-0.077461 -0.013794 0
-0.074287 -0.016443 0
-0.070543 -0.018844 0
-0.066280 -0.020933 0
-0.061563 -0.022649 0
-0.056468 -0.023934 0
-0.051085 -0.024743 0
-0.045514 -0.025040 0
-0.039861 -0.024806 0
-0.034240 -0.024037 0
-0.028763 -0.022749 0
-0.023543 -0.020980 0
-0.018682 -0.018788 0
-0.014275 -0.016253 0
-0.010399 -0.013477 0
-0.007113 -0.010583 0
-0.004453 -0.007714 0
-0.002432 -0.005032 0
-0.001040 -0.002717 0
-0.000245 -0.000968 0
0.000000 0.000000 0
0.000000 0.000000 0
-0.000542 0.003619 0
-0.002025 0.007320 0
-0.004323 0.010914 0
-0.007321 0.014268 0
-0.010915 0.017290 0
-0.015009 0.019924 0
-0.019513 0.022143 0
-0.024344 0.023939 0
-0.029424 0.025315 0
-0.034680 0.026286 0
-0.040042 0.026866 0
-0.045444 0.027072 0
-0.050823 0.026922 0
-0.056117 0.026427 0
-0.061268 0.025601 0
-0.066217 0.024450 0
-0.070907 0.022985 0
-0.075282 0.021211 0
-0.079289 0.019138 0
-0.082873 0.016775 0
-0.085984 0.014139 0
-0.088573 0.011246 0
-0.090596 0.008121 0
-0.092013 0.004795 0
-0.092787 0.001306 0
-0.092891 -0.002301 0
-0.092305 -0.005975 0
-0.091015 -0.009653 0
-0.089021 -0.013270 0
-0.086332 -0.016751 0
-0.082972 -0.020021 0
-0.078976 -0.022998 0
-0.074395 -0.025605 0
-0.069295 -0.027766 0
-0.063755 -0.029412 0
-0.057870 -0.030484 0
-0.051745 -0.030938 0
-0.045496 -0.030745 0
-0.039246 -0.029899 0
-0.033121 -0.028416 0
-0.027246 -0.026337 0
-0.021741 -0.023729 0
-0.016714 -0.020685 0
-0.012258 -0.017326 0
-0.008447 -0.013794 0
-0.005332 -0.010256 0
-0.002940 -0.006897 0
-0.001271 -0.003920 0
-0.000305 -0.001545 0
0.000000 0.000000 0
0.000000 0.000000 0
-0.000610 0.004695 0
-0.002273 0.009324 0
-0.004838 0.013715 0
-0.008169 0.017746 0
-0.012143 0.021336 0
-0.016651 0.024440 0
-0.021592 0.027037 0
-0.026874 0.029125 0
-0.032412 0.030717 0
-0.038128 0.031828 0
-0.043950 0.032480 0
-0.049807 0.032692 0
-0.055635 0.032483 0
-0.061370 0.031870 0
-0.066951 0.030863 0
-0.072318 0.029475 0
-0.077411 0.027714 0
-0.082173 0.025588 0
-0.086547 0.023108 0
-0.090476 0.020285 0
-0.093908 0.017136 0
-0.096789 0.013683 0
-0.099073 0.009954 0
-0.100714 0.005984 0
-0.101674 0.001817 0
-0.101920 -0.002495 0
-0.101426 -0.006891 0
-0.100177 -0.011301 0
-0.098165 -0.015647 0
-0.095396 -0.019844 0
-0.091888 -0.023800 0
-0.087676 -0.027421 0
-0.082808 -0.030615 0
-0.077348 -0.033288 0
-0.071378 -0.035359 0
-0.064996 -0.036753 0
-0.058313 -0.037414 0
-0.051454 -0.037305 0
-0.044553 -0.036412 0
-0.037749 -0.034749 0
-0.031184 -0.032360 0
-0.024994 -0.029321 0
-0.019305 -0.025736 0
-0.014229 -0.021744 0
-0.009857 -0.017509 0
-0.006257 -0.013222 0
-0.003470 -0.009093 0
-0.001510 -0.005352 0
-0.000365 -0.002239 0
0.000000 0.000000 0
0.000000 0.000000 0
-0.000675 0.005892 0
-0.002509 0.011547 0
-0.005328 0.016810 0
-0.008977 0.021573 0
-0.013317 0.025772 0
-0.018223 0.029373 0
-0.023584 0.032366 0
-0.029300 0.034759 0
-0.035281 0.036570 0
-0.041443 0.037823 0
-0.047710 0.038544 0
-0.054010 0.038758 0
-0.060277 0.038485 0
-0.066444 0.037743 0
-0.072450 0.036548 0
-0.078233 0.034910 0
-0.083732 0.032840 0
-0.088887 0.030346 0
-0.093639 0.027441 0
-0.097931 0.024136 0
-0.101705 0.020452 0
-0.104906 0.016411 0
-0.107483 0.012046 0
-0.109387 0.007397 0
-0.110573 0.002512 0
-0.111005 -0.002549 0
-0.110652 -0.007718 0
-0.109491 -0.012915 0
-0.107509 -0.018051 0
-0.104707 -0.023028 0
-0.101097 -0.027740 0
-0.096707 -0.032079 0
-0.091584 -0.035934 0
-0.085789 -0.039196 0
-0.079405 -0.041764 0
-0.072532 -0.043549 0
-0.065286 -0.044480 0
-0.057801 -0.044505 0
-0.050222 -0.043604 0
-0.042705 -0.041785 0
-0.035408 -0.039093 0
-0.028486 -0.035608 0
-0.022086 -0.031450 0
-0.016343 -0.026773 0
-0.011366 -0.021765 0
-0.007244 -0.016642 0
-0.004034 -0.011644 0
-0.001762 -0.007026 0
-0.000427 -0.003055 0
0.000000 0.000000 0
0.000000 0.000001 0
-0.000737 0.007204 0
-0.002732 0.013977 0
-0.005793 0.020183 0
-0.009744 0.025735 0
-0.014432 0.030582 0
-0.019718 0.034707 0
-0.025482 0.038114 0
-0.031615 0.040822 0
-0.038021 0.042859 0
-0.044613 0.044257 0
-0.051311 0.045047 0
-0.058042 0.045259 0
-0.064736 0.044917 0
-0.071328 0.044043 0
-0.077755 0.042652 0
-0.083953 0.040757 0
-0.089861 0.038368 0
-0.095418 0.035496 0
-0.100563 0.032152 0
-0.105235 0.028350 0
-0.109376 0.024111 0
-0.112927 0.019461 0
-0.115832 0.014434 0
-0.118038 0.009074 0
-0.119496 0.003436 0
-0.120163 -0.002416 0
-0.120001 -0.008406 0
-0.118980 -0.014444 0
-0.117082 -0.020431 0
-0.114298 -0.026256 0
-0.110634 -0.031799 0
-0.106112 -0.036934 0
-0.100771 -0.041532 0
-0.094671 -0.045467 0
-0.087892 -0.048616 0
-0.080536 -0.050873 0
-0.072724 -0.052145 0
-0.064598 -0.052368 0
-0.056316 -0.051507 0
-0.048048 -0.049564 0
-0.039972 -0.046580 0
-0.032266 -0.042642 0
-0.025102 -0.037879 0
-0.018635 -0.032464 0
-0.013003 -0.026607 0
-0.008313 -0.020554 0
-0.004643 -0.014575 0
-0.002034 -0.008959 0
-0.000495 -0.004001 0
0.000000 -0.000000 0
0.000000 0.000001 0
-0.000795 0.008624 0
-0.002942 0.016603 0
-0.006230 0.023821 0
-0.010467 0.030212 0
-0.015484 0.035746 0
-0.021132 0.040423 0
-0.027278 0.044262 0
-0.033809 0.047297 0
-0.040621 0.049567 0
-0.047625 0.051113 0
-0.054738 0.051973 0
-0.061885 0.052183 0
-0.068997 0.051772 0
-0.076005 0.050762 0
-0.082847 0.049172 0
-0.089460 0.047016 0
-0.095781 0.044305 0
-0.101747 0.041048 0
-0.107298 0.037258 0
-0.112371 0.032950 0
-0.116904 0.028143 0
-0.120835 0.022867 0
-0.124104 0.017157 0
-0.126655 0.011061 0
-0.128431 0.004637 0
-0.129382 -0.002045 0
-0.129466 -0.008901 0
-0.128642 -0.015834 0
-0.126885 -0.022733 0
-0.124176 -0.029476 0
-0.120512 -0.035927 0
-0.115907 -0.041942 0
-0.110394 -0.047374 0
-0.104025 -0.052074 0
-0.096877 -0.055899 0
-0.089053 -0.058718 0
-0.080677 -0.060418 0
-0.071899 -0.060913 0
-0.062889 -0.060154 0
-0.053833 -0.058128 0
-0.044932 -0.054874 0
-0.036386 -0.050479 0
-0.028395 -0.045081 0
-0.021144 -0.038872 0
-0.014796 -0.032087 0
-0.009485 -0.025002 0
-0.005311 -0.017923 0
-0.002333 -0.011174 0
-0.000569 -0.005089 0
0.000000 -0.000000 0
0.000000 0.000001 0
-0.000849 0.010145 0
-0.003139 0.019413 0
-0.006640 0.027708 0
-0.011144 0.034988 0
-0.016470 0.041246 0
-0.022457 0.046500 0
-0.028964 0.050791 0
-0.035870 0.054165 0
-0.043069 0.056675 0
-0.050465 0.058374 0
-0.057975 0.059307 0
-0.065523 0.059517 0
-0.073037 0.059037 0
-0.080451 0.057894 0
-0.087702 0.056106 0
-0.094725 0.053690 0
-0.101460 0.050655 0
-0.107843 0.047013 0
-0.113812 0.042775 0
-0.119302 0.037956 0
-0.124250 0.032575 0
-0.128591 0.026662 0
-0.132261 0.020254 0
-0.135197 0.013401 0
-0.137338 0.006164 0
-0.138627 -0.001382 0
-0.139012 -0.009146 0
-0.138445 -0.017025 0
-0.136890 -0.024898 0
-0.134318 -0.032629 0
-0.130716 -0.040068 0
-0.126086 -0.047053 0
-0.120452 -0.053415 0
-0.113859 -0.058983 0
-0.106379 -0.063588 0
-0.098110 -0.067073 0
-0.089181 -0.069299 0
-0.079746 -0.070157 0
-0.069988 -0.069573 0
-0.060111 -0.067521 0
-0.050336 -0.064027 0
-0.040893 -0.059179 0
-0.032011 -0.053121 0
-0.023907 -0.046063 0
-0.016776 -0.038266 0
-0.010783 -0.030039 0
-0.006052 -0.021728 0
-0.002664 -0.013701 0
-0.000652 -0.006334 0
0.000000 -0.000000 0
0.000000 0.000001 0
-0.000898 0.011762 0
-0.003320 0.022394 0
-0.007018 0.031827 0
-0.011771 0.040043 0
-0.017384 0.047058 0
-0.023687 0.052917 0
-0.030531 0.057676 0
-0.037789 0.061402 0
-0.045349 0.064162 0
-0.053115 0.066019 0
-0.061001 0.067031 0
-0.068930 0.067245 0
-0.076830 0.066700 0
-0.084636 0.065427 0
-0.092284 0.063446 0
-0.099712 0.060774 0
-0.106858 0.057422 0
-0.113660 0.053400 0
-0.120054 0.048717 0
-0.125976 0.043388 0
-0.131359 0.037432 0
-0.136136 0.030878 0
-0.140240 0.023763 0
-0.143601 0.016138 0
-0.146153 0.008067 0
-0.147831 -0.000371 0
-0.148574 -0.009082 0
-0.148326 -0.017955 0
-0.147038 -0.026861 0
-0.144670 -0.035650 0
-0.141197 -0.044159 0
-0.136609 -0.052206 0
-0.130917 -0.059601 0
-0.124156 -0.066147 0
-0.116389 -0.071648 0
-0.107712 -0.075916 0
-0.098250 -0.078782 0
-0.088164 -0.080106 0
-0.077648 -0.079789 0
-0.066921 -0.077780 0
-0.056230 -0.074092 0
-0.045832 -0.068804 0
-0.035991 -0.062068 0
-0.026960 -0.054107 0
-0.018973 -0.045211 0
-0.012228 -0.035726 0
-0.006881 -0.026041 0
-0.003036 -0.016575 0
-0.000745 -0.007753 0
0.000000 -0.000000 0
0.000000 0.000001 0
-0.000944 0.013465 0
-0.003486 0.025532 0
-0.007364 0.036159 0
-0.012345 0.045354 0
-0.018221 0.053161 0
-0.024814 0.059647 0
-0.031968 0.064893 0
-0.039551 0.068983 0
-0.047447 0.072002 0
-0.055556 0.074025 0
-0.063793 0.075121 0
-0.072079 0.075346 0
-0.080344 0.074743 0
-0.088522 0.073347 0
-0.096552 0.071182 0
-0.104372 0.068264 0
-0.111922 0.064603 0
-0.119139 0.060209 0
-0.125961 0.055091 0
-0.132322 0.049261 0
-0.138155 0.042736 0
-0.143390 0.035543 0
-0.147955 0.027719 0
-0.151777 0.019314 0
-0.154783 0.010394 0
-0.156900 0.001039 0
-0.158058 -0.008651 0
-0.158190 -0.018561 0
-0.157237 -0.028554 0
-0.155145 -0.038470 0
-0.151875 -0.048129 0
-0.147403 -0.057333 0
-0.141725 -0.065868 0
-0.134864 -0.073510 0
-0.126872 -0.080032 0
-0.117835 -0.085212 0
-0.107877 -0.088847 0
-0.097160 -0.090759 0
-0.085886 -0.090816 0
-0.074292 -0.088938 0
-0.062647 -0.085116 0
-0.051241 -0.079417 0
-0.040373 -0.071993 0
-0.030339 -0.063081 0
-0.021415 -0.052998 0
-0.013842 -0.042131 0
-0.007810 -0.030919 0
-0.003456 -0.019837 0
-0.000850 -0.009370 0
0.000000 -0.000000 0
0.000000 0.000001 0
-0.000985 0.015248 0
-0.003635 0.028814 0
-0.007676 0.040685 0
-0.012861 0.050899 0
-0.018974 0.059527 0
-0.025830 0.066664 0
-0.033265 0.072413 0
-0.041142 0.076880 0
-0.049343 0.080167 0
-0.057766 0.082365 0
-0.066324 0.083553 0
-0.074939 0.083796 0
-0.083542 0.083144 0
-0.092069 0.081635 0
-0.100458 0.079296 0
-0.108652 0.076144 0
-0.116589 0.072189 0
-0.124211 0.067439 0
-0.131455 0.061900 0
-0.138255 0.055582 0
-0.144544 0.048500 0
-0.150250 0.040678 0
-0.155297 0.032151 0
-0.159609 0.022966 0
-0.163106 0.013190 0
-0.165708 0.002903 0
-0.167334 -0.007793 0
-0.167908 -0.018776 0
-0.167358 -0.029906 0
-0.165618 -0.041011 0
-0.162631 -0.051901 0
-0.158358 -0.062356 0
-0.152779 -0.072140 0
-0.145900 -0.081000 0
-0.137757 -0.088677 0
-0.128428 -0.094911 0
-0.118026 -0.099457 0
-0.106714 -0.102098 0
-0.094699 -0.102657 0
-0.082233 -0.101019 0
-0.069608 -0.097143 0
-0.057147 -0.091078 0
-0.045189 -0.082969 0
-0.034075 -0.073065 0
-0.024131 -0.061709 0
-0.015645 -0.049331 0
-0.008855 -0.036427 0
-0.003930 -0.023535 0
-0.000971 -0.011209 0
0.000000 -0.000000 0
0.000000 0.000002 0
-0.001021 0.017100 0
-0.003766 0.032223 0
-0.007949 0.045384 0
-0.013315 0.056653 0
-0.019639 0.066130 0
-0.026726 0.073937 0
-0.034410 0.080205 0
-0.042549 0.085061 0
-0.051021 0.088626 0
-0.059724 0.091007 0
-0.068569 0.092294 0
-0.077479 0.092564 0
-0.086387 0.091873 0
-0.095229 0.090264 0
-0.103949 0.087765 0