# vtk DataFile Version 2.0
generated by CFD-lab course output (written by Tobias Neckel) 
ASCII

DATASET STRUCTURED_GRID
DIMENSIONS  51 51 1 
POINTS 2601 float

0.000000 0.000000 0
0.020000 0.000000 0
0.040000 0.000000 0
0.060000 0.000000 0
0.080000 0.000000 0
0.100000 0.000000 0
0.120000 0.000000 0
0.140000 0.000000 0
0.160000 0.000000 0
0.180000 0.000000 0
0.200000 0.000000 0
0.220000 0.000000 0
0.240000 0.000000 0
0.260000 0.000000 0
0.280000 0.000000 0
0.300000 0.000000 0
0.320000 0.000000 0
0.340000 0.000000 0
0.360000 0.000000 0
0.380000 0.000000 0
0.400000 0.000000 0
0.420000 0.000000 0
0.440000 0.000000 0
0.460000 0.000000 0
0.480000 0.000000 0
0.500000 0.000000 0
0.520000 0.000000 0
0.540000 0.000000 0
0.560000 0.000000 0
0.580000 0.000000 0
0.600000 0.000000 0
0.620000 0.000000 0
0.640000 0.000000 0
0.660000 0.000000 0
0.680000 0.000000 0
0.700000 0.000000 0
0.720000 0.000000 0
0.740000 0.000000 0
0.760000 0.000000 0
0.780000 0.000000 0
0.800000 0.000000 0
0.820000 0.000000 0
0.840000 0.000000 0
0.860000 0.000000 0
0.880000 0.000000 0
0.900000 0.000000 0
0.920000 0.000000 0
0.940000 0.000000 0
0.960000 0.000000 0
0.980000 0.000000 0
1.000000 0.000000 0
0.000000 0.020000 0
0.020000 0.020000 0
0.040000 0.020000 0
0.060000 0.020000 0
0.080000 0.020000 0
0.100000 0.020000 0
0.120000 0.020000 0
0.140000 0.020000 0
0.160000 0.020000 0
0.180000 0.020000 0
0.200000 0.020000 0
0.220000 0.020000 0
0.240000 0.020000 0
0.260000 0.020000 0
0.280000 0.020000 0
0.300000 0.020000 0
0.320000 0.020000 0
0.340000 0.020000 0
0.360000 0.020000 0
0.380000 0.020000 0
0.400000 0.020000 0
0.420000 0.020000 0
0.440000 0.020000 0
0.460000 0.020000 0
0.480000 0.020000 0
0.500000 0.020000 0
0.520000 0.020000 0
0.540000 0.020000 0
0.560000 0.020000 0
0.580000 0.020000 0
0.600000 0.020000 0
0.620000 0.020000 0
0.640000 0.020000 0
0.660000 0.020000 0
0.680000 0.020000 0
0.700000 0.020000 0
0.720000 0.020000 0
0.740000 0.020000 0
0.760000 0.020000 0
0.780000 0.020000 0
0.800000 0.020000 0
0.820000 0.020000 0
0.840000 0.020000 0
0.860000 0.020000 0
0.880000 0.020000 0
0.900000 0.020000 0
0.920000 0.020000 0
0.940000 0.020000 0
0.960000 0.020000 0
0.980000 0.020000 0
1.000000 0.020000 0
0.000000 0.040000 0
0.020000 0.040000 0
0.040000 0.040000 0
0.060000 0.040000 0
0.080000 0.040000 0
0.100000 0.040000 0
0.120000 0.040000 0
0.140000 0.040000 0
0.160000 0.040000 0
0.180000 0.040000 0
0.200000 0.040000 0
0.220000 0.040000 0
0.240000 0.040000 0
0.260000 0.040000 0
0.280000 0.040000 0
0.300000 0.040000 0
0.320000 0.040000 0
0.340000 0.040000 0
0.360000 0.040000 0
0.380000 0.040000 0
0.400000 0.040000 0
0.420000 0.040000 0
0.440000 0.040000 0
0.460000 0.040000 0
0.480000 0.040000 0
0.500000 0.040000 0
0.520000 0.040000 0
0.540000 0.040000 0
0.560000 0.040000 0
0.580000 0.040000 0
0.600000 0.040000 0
0.620000 0.040000 0
0.640000 0.040000 0
0.660000 0.040000 0
0.680000 0.040000 0
0.700000 0.040000 0
0.720000 0.040000 0
0.740000 0.040000 0
0.760000 0.040000 0
0.780000 0.040000 0
0.800000 0.040000 0
0.820000 0.040000 0
0.840000 0.040000 0
0.860000 0.040000 0
0.880000 0.040000 0
0.900000 0.040000 0
0.920000 0.040000 0
0.940000 0.040000 0
0.960000 0.040000 0
0.980000 0.040000 0
1.000000 0.040000 0
0.000000 0.060000 0
0.020000 0.060000 0
0.040000 0.060000 0
0.060000 0.060000 0
0.080000 0.060000 0
0.100000 0.060000 0
0.120000 0.060000 0
0.140000 0.060000 0
0.160000 0.060000 0
0.180000 0.060000 0
0.200000 0.060000 0
0.220000 0.060000 0
0.240000 0.060000 0
0.260000 0.060000 0
0.280000 0.060000 0
0.300000 0.060000 0
0.320000 0.060000 0
0.340000 0.060000 0
0.360000 0.060000 0
0.380000 0.060000 0
0.400000 0.060000 0
0.420000 0.060000 0
0.440000 0.060000 0
0.460000 0.060000 0
0.480000 0.060000 0
0.500000 0.060000 0
0.520000 0.060000 0
0.540000 0.060000 0
0.560000 0.060000 0
0.580000 0.060000 0
0.600000 0.060000 0
0.620000 0.060000 0
0.640000 0.060000 0
0.660000 0.060000 0
0.680000 0.060000 0
0.700000 0.060000 0
0.720000 0.060000 0
0.740000 0.060000 0
0.760000 0.060000 0
0.780000 0.060000 0
0.800000 0.060000 0
0.820000 0.060000 0
0.840000 0.060000 0
0.860000 0.060000 0
0.880000 0.060000 0
0.900000 0.060000 0
0.920000 0.060000 0
0.940000 0.060000 0
0.960000 0.060000 0
0.980000 0.060000 0
1.000000 0.060000 0
0.000000 0.080000 0
0.020000 0.080000 0
0.040000 0.080000 0
0.060000 0.080000 0
0.080000 0.080000 0
0.100000 0.080000 0
0.120000 0.080000 0
0.140000 0.080000 0
0.160000 0.080000 0
0.180000 0.080000 0
0.200000 0.080000 0
0.220000 0.080000 0
0.240000 0.080000 0
0.260000 0.080000 0
0.280000 0.080000 0
0.300000 0.080000 0
0.320000 0.080000 0
0.340000 0.080000 0
0.360000 0.080000 0
0.380000 0.080000 0
0.400000 0.080000 0
0.420000 0.080000 0
0.440000 0.080000 0
0.460000 0.080000 0
0.480000 0.080000 0
0.500000 0.080000 0
0.520000 0.080000 0
0.540000 0.080000 0
0.560000 0.080000 0
0.580000 0.080000 0
0.600000 0.080000 0
0.620000 0.080000 0
0.640000 0.080000 0
0.660000 0.080000 0
0.680000 0.080000 0
0.700000 0.080000 0
0.720000 0.080000 0
0.740000 0.080000 0
0.760000 0.080000 0
0.780000 0.080000 0
0.800000 0.080000 0
0.820000 0.080000 0
0.840000 0.080000 0
0.860000 0.080000 0
0.880000 0.080000 0
0.900000 0.080000 0
0.920000 0.080000 0
0.940000 0.080000 0
0.960000 0.080000 0
0.980000 0.080000 0
1.000000 0.080000 0
0.000000 0.100000 0
0.020000 0.100000 0
0.040000 0.100000 0
0.060000 0.100000 0
0.080000 0.100000 0
0.100000 0.100000 0
0.120000 0.100000 0
0.140000 0.100000 0
0.160000 0.100000 0
0.180000 0.100000 0
0.200000 0.100000 0
0.220000 0.100000 0
0.240000 0.100000 0
0.260000 0.100000 0
0.280000 0.100000 0
0.300000 0.100000 0
0.320000 0.100000 0
0.340000 0.100000 0
0.360000 0.100000 0
0.380000 0.100000 0
0.400000 0.100000 0
0.420000 0.100000 0
0.440000 0.100000 0
0.460000 0.100000 0
0.480000 0.100000 0
0.500000 0.100000 0
0.520000 0.100000 0
0.540000 0.100000 0
0.560000 0.100000 0
0.580000 0.100000 0
0.600000 0.100000 0
0.620000 0.100000 0
0.640000 0.100000 0
0.660000 0.100000 0
0.680000 0.100000 0
0.700000 0.100000 0
0.720000 0.100000 0
0.740000 0.100000 0
0.760000 0.100000 0
0.780000 0.100000 0
0.800000 0.100000 0
0.820000 0.100000 0
0.840000 0.100000 0
0.860000 0.100000 0
0.880000 0.100000 0
0.900000 0.100000 0
0.920000 0.100000 0
0.940000 0.100000 0
0.960000 0.100000 0
0.980000 0.100000 0
1.000000 0.100000 0
0.000000 0.120000 0
0.020000 0.120000 0
0.040000 0.120000 0
0.060000 0.120000 0
0.080000 0.120000 0
0.100000 0.120000 0
0.120000 0.120000 0
0.140000 0.120000 0
0.160000 0.120000 0
0.180000 0.120000 0
0.200000 0.120000 0
0.220000 0.120000 0
0.240000 0.120000 0
0.260000 0.120000 0
0.280000 0.120000 0
0.300000 0.120000 0
0.320000 0.120000 0
0.340000 0.120000 0
0.360000 0.120000 0
0.380000 0.120000 0
0.400000 0.120000 0
0.420000 0.120000 0
0.440000 0.120000 0
0.460000 0.120000 0
0.480000 0.120000 0
0.500000 0.120000 0
0.520000 0.120000 0
0.540000 0.120000 0
0.560000 0.120000 0
0.580000 0.120000 0
0.600000 0.120000 0
0.620000 0.120000 0
0.640000 0.120000 0
0.660000 0.120000 0
0.680000 0.120000 0
0.700000 0.120000 0
0.720000 0.120000 0
0.740000 0.120000 0
0.760000 0.120000 0
0.780000 0.120000 0
0.800000 0.120000 0
0.820000 0.120000 0
0.840000 0.120000 0
0.860000 0.120000 0
0.880000 0.120000 0
0.900000 0.120000 0
0.920000 0.120000 0
0.940000 0.120000 0
0.960000 0.120000 0
0.980000 0.120000 0
1.000000 0.120000 0
0.000000 0.140000 0
0.020000 0.140000 0
0.040000 0.140000 0
0.060000 0.140000 0
0.080000 0.140000 0
0.100000 0.140000 0
0.120000 0.140000 0
0.140000 0.140000 0
0.160000 0.140000 0
0.180000 0.140000 0
0.200000 0.140000 0
0.220000 0.140000 0
0.240000 0.140000 0
0.260000 0.140000 0
0.280000 0.140000 0
0.300000 0.140000 0
0.320000 0.140000 0
0.340000 0.140000 0
0.360000 0.140000 0
0.380000 0.140000 0
0.400000 0.140000 0
0.420000 0.140000 0
0.440000 0.140000 0
0.460000 0.140000 0
0.480000 0.140000 0
0.500000 0.140000 0
0.520000 0.140000 0
0.540000 0.140000 0
0.560000 0.140000 0
0.580000 0.140000 0
0.600000 0.140000 0
0.620000 0.140000 0
0.640000 0.140000 0
0.660000 0.140000 0
0.680000 0.140000 0
0.700000 0.140000 0
0.720000 0.140000 0
0.740000 0.140000 0
0.760000 0.140000 0
0.780000 0.140000 0
0.800000 0.140000 0
0.820000 0.140000 0
0.840000 0.140000 0
0.860000 0.140000 0
0.880000 0.140000 0
0.900000 0.140000 0
0.920000 0.140000 0
0.940000 0.140000 0
0.960000 0.140000 0
0.980000 0.140000 0
1.000000 0.140000 0
0.000000 0.160000 0
0.020000 0.160000 0
0.040000 0.160000 0
0.060000 0.160000 0
0.080000 0.160000 0
0.100000 0.160000 0
0.120000 0.160000 0
0.140000 0.160000 0
0.160000 0.160000 0
0.180000 0.160000 0
0.200000 0.160000 0
0.220000 0.160000 0
0.240000 0.160000 0
0.260000 0.160000 0
0.280000 0.160000 0
0.300000 0.160000 0
0.320000 0.160000 0
0.340000 0.160000 0
0.360000 0.160000 0
0.380000 0.160000 0
0.400000 0.160000 0
0.420000 0.160000 0
0.440000 0.160000 0
0.460000 0.160000 0
0.480000 0.160000 0
0.500000 0.160000 0
0.520000 0.160000 0
0.540000 0.160000 0
0.560000 0.160000 0
0.580000 0.160000 0
0.600000 0.160000 0
0.620000 0.160000 0
0.640000 0.160000 0
0.660000 0.160000 0
0.680000 0.160000 0
0.700000 0.160000 0
0.720000 0.160000 0
0.740000 0.160000 0
0.760000 0.160000 0
0.780000 0.160000 0
0.800000 0.160000 0
0.820000 0.160000 0
0.840000 0.160000 0
0.860000 0.160000 0
0.880000 0.160000 0
0.900000 0.160000 0
0.920000 0.160000 0
0.940000 0.160000 0
0.960000 0.160000 0
0.980000 0.160000 0
1.000000 0.160000 0
0.000000 0.180000 0
0.020000 0.180000 0
0.040000 0.180000 0
0.060000 0.180000 0
0.080000 0.180000 0
0.100000 0.180000 0
0.120000 0.180000 0
0.140000 0.180000 0
0.160000 0.180000 0
0.180000 0.180000 0
0.200000 0.180000 0
0.220000 0.180000 0
0.240000 0.180000 0
0.260000 0.180000 0
0.280000 0.180000 0
0.300000 0.180000 0
0.320000 0.180000 0
0.340000 0.180000 0
0.360000 0.180000 0
0.380000 0.180000 0
0.400000 0.180000 0
0.420000 0.180000 0
0.440000 0.180000 0
0.460000 0.180000 0
0.480000 0.180000 0
0.500000 0.180000 0
0.520000 0.180000 0
0.540000 0.180000 0
0.560000 0.180000 0
0.580000 0.180000 0
0.600000 0.180000 0
0.620000 0.180000 0
[...]
POINT_DATA 2601 

VECTORS velocity float
0.000000 0.000000 0
-0.000000 0.000000 0
-0.000000 0.000000 0
-0.000000 0.000000 0
0.000000 0.000000 0
0.000000 0.000000 0
0.000000 0.000000 0
-0.000000 0.000000 0
-0.000000 0.000000 0
-0.000000 0.000000 0
-0.000000 0.000000 0
0.000000 0.000000 0
0.000000 0.000000 0
0.000000 0.000000 0
0.000000 0.000000 0
-0.000000 0.000000 0
-0.000000 0.000000 0
-0.000000 0.000000 0
0.000000 0.000000 0
0.000000 0.000000 0
0.000000 0.000000 0
0.000000 0.000000 0
-0.000000 0.000000 0
-0.000000 0.000000 0
-0.000000 0.000000 0
-0.000000 0.000000 0
-0.000000 0.000000 0
-0.000000 0.000000 0
0.000000 0.000000 0
0.000000 0.000000 0
0.000000 0.000000 0
0.000000 0.000000 0
-0.000000 0.000000 0
-0.000000 0.000000 0
-0.000000 0.000000 0
-0.000000 0.000000 0
-0.000000 0.000000 0
-0.000000 0.000000 0
-0.000000 0.000000 0
0.000000 0.000000 0
0.000000 0.000000 0
0.000000 0.000000 0
0.000000 0.000000 0
0.000000 0.000000 0
0.000000 0.000000 0
0.000000 0.000000 0
0.000000 0.000000 0
-0.000000 0.000000 0
-0.000000 0.000000 0
-0.000000 0.000000 0
0.000000 0.000000 0
0.000000 -0.000000 0
0.000061 -0.000060 0
0.000083 -0.000025 0
-0.000010 0.000053 0
-0.000249 0.000142 0
-0.000636 0.000227 0
-0.001160 0.000301 0
-0.001803 0.000363 0
-0.002545 0.000412 0
-0.003364 0.000449 0
-0.004242 0.000477 0
-0.005160 0.000494 0
-0.006103 0.000504 0
-0.007055 0.000505 0
-0.008002 0.000500 0
-0.008931 0.000488 0
-0.009831 0.000470 0
-0.010688 0.000445 0
-0.011490 0.000414 0
-0.012226 0.000377 0
-0.012884 0.000333 0
-0.013452 0.000282 0
-0.013919 0.000226 0
-0.014273 0.000164 0
-0.014505 0.000096 0
-0.014608 0.000024 0
-0.014573 -0.000051 0
-0.014397 -0.000129 0
-0.014077 -0.000207 0
-0.013616 -0.000283 0
-0.013018 -0.000357 0
-0.012291 -0.000425 0
-0.011447 -0.000485 0
-0.010501 -0.000536 0
-0.009472 -0.000575 0
-0.008384 -0.000602 0
-0.007260 -0.000613 0
-0.006128 -0.000609 0
-0.005016 -0.000589 0
-0.003952 -0.000553 0
-0.002963 -0.000503 0
-0.002075 -0.000438 0
-0.001310 -0.000363 0
-0.000685 -0.000278 0
-0.000213 -0.000188 0
0.000102 -0.000097 0
0.000263 -0.000012 0
0.000287 0.000057 0
0.000208 0.000096 0
0.000083 0.000082 0
0.000000 -0.000000 0
0.000000 -0.000000 0
0.000025 -0.000084 0
-0.000071 0.000070 0
-0.000378 0.000332 0
-0.000932 0.000627 0
-0.001738 0.000912 0
-0.002779 0.001167 0
-0.004026 0.001384 0
-0.005446 0.001561 0
-0.007005 0.001697 0
-0.008669 0.001796 0
-0.010405 0.001861 0
-0.012184 0.001894 0
-0.013979 0.001899 0
-0.015762 0.001877 0
-0.017509 0.001829 0
-0.019195 0.001756 0
-0.020799 0.001660 0
-0.022296 0.001539 0
-0.023665 0.001394 0
-0.024884 0.001226 0
-0.025930 0.001034 0
-0.026784 0.000821 0
-0.027427 0.000587 0
-0.027841 0.000335 0
-0.028013 0.000067 0
-0.027931 -0.000211 0
-0.027589 -0.000495 0
-0.026983 -0.000780 0
-0.026118 -0.001059 0
-0.025003 -0.001326 0
-0.023653 -0.001572 0
-0.022089 -0.001790 0
-0.020341 -0.001974 0
-0.018443 -0.002117 0
-0.016434 -0.002212 0
-0.014359 -0.002256 0
-0.012266 -0.002244 0
-0.010205 -0.002176 0
-0.008224 -0.002053 0
-0.006374 -0.001877 0
-0.004697 -0.001654 0
-0.003233 -0.001390 0
-0.002013 -0.001097 0
-0.001058 -0.000786 0
-0.000376 -0.000475 0
0.000041 -0.000185 0
0.000220 0.000055 0
0.000212 0.000204 0
0.000099 0.000208 0
0.000000 -0.000000 0
0.000000 -0.000000 0
-0.000055 0.000010 0
-0.000344 0.000379 0
-0.000938 0.000916 0
-0.001863 0.001503 0
-0.003119 0.002073 0
-0.004681 0.002588 0
-0.006513 0.003029 0
-0.008573 0.003391 0
-0.010817 0.003672 0
-0.013201 0.003877 0
-0.015680 0.004010 0
-0.018214 0.004077 0
-0.020764 0.004082 0
-0.023293 0.004030 0
-0.025766 0.003922 0
-0.028150 0.003760 0
-0.030411 0.003546 0
-0.032517 0.003280 0
-0.034437 0.002964 0
-0.036140 0.002597 0
-0.037597 0.002183 0
-0.038781 0.001723 0
-0.039665 0.001221 0
-0.040227 0.000682 0
-0.040449 0.000114 0
-0.040318 -0.000476 0
-0.039823 -0.001077 0
-0.038965 -0.001677 0
-0.037747 -0.002264 0
-0.036183 -0.002822 0
-0.034296 -0.003338 0
-0.032114 -0.003797 0
-0.029676 -0.004183 0
-0.027030 -0.004483 0
-0.024229 -0.004685 0
-0.021331 -0.004781 0
-0.018403 -0.004764 0
-0.015509 -0.004631 0
-0.012717 -0.004384 0
-0.010091 -0.004030 0
-0.007691 -0.003579 0
-0.005570 -0.003046 0
-0.003769 -0.002453 0
-0.002317 -0.001825 0
-0.001225 -0.001196 0
-0.000485 -0.000608 0
-0.000067 -0.000114 0
0.000088 0.000217 0
0.000068 0.000294 0
0.000000 0.000000 0
0.000000 -0.000000 0
-0.000152 0.000261 0
-0.000670 0.000954 0
-0.001591 0.001852 0
-0.002924 0.002807 0
-0.004651 0.003728 0
-0.006740 0.004561 0
-0.009148 0.005277 0
-0.011824 0.005866 0
-0.014716 0.006325 0
-0.017770 0.006659 0
-0.020935 0.006874 0
-0.024160 0.006978 0
-0.027397 0.006978 0
-0.030602 0.006879 0
-0.033729 0.006686 0
-0.036738 0.006401 0
-0.039586 0.006027 0
-0.042234 0.005565 0
-0.044642 0.005017 0
-0.046774 0.004386 0
-0.048592 0.003675 0
-0.050063 0.002888 0
-0.051158 0.002033 0
-0.051849 0.001119 0
-0.052115 0.000158 0
-0.051939 -0.000837 0
-0.051313 -0.001848 0
-0.050234 -0.002857 0
-0.048711 -0.003840 0
-0.046759 -0.004777 0
-0.044405 -0.005641 0
-0.041686 -0.006410 0
-0.038648 -0.007058 0
-0.035347 -0.007565 0
-0.031848 -0.007911 0
-0.028223 -0.008082 0
-0.024548 -0.008067 0
-0.020903 -0.007862 0
-0.017369 -0.007471 0
-0.014025 -0.006902 0
-0.010942 -0.006174 0
-0.008185 -0.005313 0
-0.005805 -0.004351 0
-0.003839 -0.003331 0
-0.002304 -0.002307 0
-0.001194 -0.001343 0
-0.000482 -0.000518 0
-0.000108 0.000070 0
0.000012 0.000295 0
0.000000 0.000000 0
0.000000 0.000000 0
-0.000251 0.000681 0
-0.001013 0.001819 0
-0.002282 0.003169 0
-0.004039 0.004561 0
-0.006251 0.005889 0
-0.008871 0.007085 0
-0.011848 0.008114 0
-0.015122 0.008959 0
-0.018633 0.009618 0
-0.022321 0.010095 0
-0.026127 0.010399 0
-0.029993 0.010540 0
-0.033865 0.010525 0
-0.037689 0.010362 0
-0.041415 0.010058 0
-0.044993 0.009617 0
-0.048374 0.009042 0
-0.051513 0.008336 0
-0.054364 0.007503 0
-0.056883 0.006547 0
-0.059029 0.005473 0
-0.060763 0.004289 0
-0.062052 0.003006 0
-0.062865 0.001639 0
-0.063178 0.000204 0
-0.062972 -0.001278 0
-0.062238 -0.002781 0
-0.060975 -0.004279 0
-0.059191 -0.005739 0
-0.056904 -0.007128 0
-0.054145 -0.008411 0
-0.050955 -0.009554 0
-0.047386 -0.010521 0
-0.043502 -0.011282 0
-0.039376 -0.011810 0
-0.035090 -0.012082 0
-0.030729 -0.012084 0
-0.026387 -0.011809 0
-0.022155 -0.011263 0
-0.018124 -0.010458 0
-0.014378 -0.009419 0
-0.010992 -0.008183 0
-0.008027 -0.006799 0
-0.005530 -0.005327 0
-0.003524 -0.003841 0
-0.002010 -0.002430 0
-0.000966 -0.001200 0
-0.000340 -0.000277 0
-0.000053 0.000186 0
0.000000 0.000000 0
0.000000 0.000000 0
-0.000350 0.001275 0
-0.001357 0.002984 0
-0.002978 0.004877 0
-0.005165 0.006775 0
-0.007864 0.008560 0
-0.011014 0.010159 0
-0.014551 0.011528 0
-0.018408 0.012651 0
-0.022516 0.013524 0
-0.026809 0.014152 0
-0.031221 0.014546 0
-0.035690 0.014716 0
-0.040154 0.014674 0
-0.044554 0.014429 0
-0.048834 0.013989 0
-0.052939 0.013360 0
-0.056814 0.012547 0
-0.060407 0.011554 0
-0.063668 0.010387 0
-0.066549 0.009051 0
-0.069003 0.007555 0
-0.070989 0.005912 0
-0.072468 0.004135 0
-0.073407 0.002245 0
-0.073779 0.000265 0
-0.073566 -0.001776 0
-0.072754 -0.003845 0
-0.071343 -0.005904 0
-0.069342 -0.007912 0
-0.066769 -0.009823 0
-0.063658 -0.011591 0
-0.060053 -0.013168 0
-0.056010 -0.014510 0
-0.051598 -0.015574 0
-0.046897 -0.016324 0
-0.041995 -0.016729 0
-0.036990 -0.016769 0
-0.031982 -0.016436 0
-0.027075 -0.015734 0
-0.022370 -0.014680 0
-0.017965 -0.013307 0
-0.013944 -0.011663 0
-0.010381 -0.009812 0
-0.007332 -0.007835 0
-0.004830 -0.005826 0
-0.002887 -0.003900 0
-0.001486 -0.002188 0
-0.000586 -0.000844 0
-0.000121 -0.000044 0
0.000000 0.000000 0
0.000000 0.000000 0
-0.000445 0.002038 0
-0.001692 0.004447 0
-0.003661 0.006976 0
-0.006275 0.009448 0
-0.009457 0.011739 0
-0.013130 0.013773 0
-0.017216 0.015508 0
-0.021640 0.016924 0
-0.026324 0.018019 0
-0.031197 0.018800 0
-0.036187 0.019280 0
-0.041227 0.019472 0
-0.046250 0.019389 0
-0.051193 0.019043 0
-0.055994 0.018443 0
-0.060594 0.017596 0
-0.064934 0.016510 0
-0.068957 0.015191 0
-0.072609 0.013645 0
-0.075838 0.011882 0
-0.078593 0.009913 0
-0.080829 0.007754 0
-0.082505 0.005424 0
-0.083584 0.002950 0
-0.084037 0.000362 0
-0.083843 -0.002303 0
-0.082988 -0.005004 0
-0.081470 -0.007692 0
-0.079295 -0.010313 0
-0.076485 -0.012812 0
-0.073070 -0.015128 0
-0.069098 -0.017202 0
-0.064628 -0.018976 0
-0.059731 -0.020395 0
-0.054493 -0.021412 0
-0.049008 -0.021989 0
-0.043382 -0.022097 0
-0.037725 -0.021724 0
-0.032150 -0.020874 0
-0.026771 -0.019568 0
-0.021697 -0.017845 0
-0.017026 -0.015766 0
-0.012844 -0.013411 0
-0.009219 -0.010878 0
-0.006198 -0.008286 0
-0.003801 -0.005775 0
-0.002024 -0.003501 0
-0.000838 -0.001642 0
-0.000188 -0.000400 0
0.000000 0.000000 0
0.000000 -0.000000 0
-0.000536 0.002966 0
-0.002015 0.006200 0
-0.004322 0.009460 0
-0.007353 0.012571 0
-0.011007 0.015416 0
-0.015191 0.017918 0
-0.019812 0.020038 0
-0.024784 0.021759 0
-0.030025 0.023081 0
-0.035455 0.024015 0
-0.040998 0.024576 0
-0.046583 0.024779 0
-0.052138 0.024640 0
-0.057597 0.024174 0
-0.062895 0.023391 0
-0.067968 0.022300 0
-0.072753 0.020910 0
-0.077192 0.019230 0
-0.081225 0.017267 0
-0.084798 0.015034 0
-0.087856 0.012547 0
-0.090351 0.009823 0
-0.092239 0.006890 0
-0.093481 0.003777 0
-0.094044 0.000524 0
-0.093904 -0.002825 0
-0.093046 -0.006218 0
-0.091463 -0.009597 0
-0.089161 -0.012897 0
-0.086160 -0.016048 0
-0.082489 -0.018977 0
-0.078195 -0.021611 0
-0.073338 -0.023878 0
-0.067992 -0.025709 0
-0.062246 -0.027047 0
-0.056200 -0.027840 0
-0.049966 -0.028053 0
-0.043663 -0.027668 0
-0.037417 -0.026687 0
-0.031352 -0.025133 0
-0.025590 -0.023052 0
-0.020244 -0.020515 0
-0.015416 -0.017619 0
-0.011187 -0.014481 0
-0.007618 -0.011245 0
-0.004745 -0.008074 0
-0.002576 -0.005151 0
-0.001093 -0.002680 0
-0.000255 -0.000883 0
0.000000 0.000000 0
0.000000 -0.000000 0
-0.000621 0.004052 0
-0.002322 0.008233 0
-0.004955 0.012315 0
-0.008389 0.016133 0
-0.012500 0.019577 0
-0.017177 0.022577 0
-0.022315 0.025101 0
-0.027817 0.027137 0
-0.033594 0.028690 0
-0.039559 0.029774 0
-0.045633 0.030408 0
-0.051739 0.030612 0
-0.057804 0.030404 0
-0.063758 0.029800 0
-0.069533 0.028813 0
-0.075063 0.027455 0
-0.080282 0.025735 0
-0.085129 0.023663 0
-0.089542 0.021251 0
-0.093462 0.018512 0
-0.096834 0.015467 0
-0.099606 0.012137 0
-0.101729 0.008554 0
-0.103163 0.004755 0
-0.103871 0.000786 0
-0.103825 -0.003302 0
-0.103007 -0.007445 0
-0.101406 -0.011576 0
-0.099027 -0.015616 0
-0.095882 -0.019484 0
-0.092002 -0.023093 0
-0.087430 -0.026353 0
-0.082225 -0.029179 0
-0.076462 -0.031487 0
-0.070232 -0.033205 0
-0.063641 -0.034269 0
-0.056805 -0.034633 0
-0.049854 -0.034273 0
-0.042922 -0.033186 0
-0.036150 -0.031395 0
-0.029674 -0.028952 0
-0.023622 -0.025940 0
-0.018113 -0.022468 0
-0.013247 -0.018675 0
-0.009100 -0.014729 0
-0.005724 -0.010817 0
-0.003143 -0.007152 0
-0.001352 -0.003963 0
-0.000322 -0.001493 0
0.000000 0.000000 0
0.000000 -0.000000 0
-0.000702 0.005288 0
-0.002613 0.010534 0
-0.005557 0.015527 0
-0.009374 0.020116 0
-0.013923 0.024204 0
-0.019073 0.027733 0
-0.024707 0.030678 0
-0.030718 0.033038 0
-0.037008 0.034823 0
-0.043486 0.036054 0
-0.050069 0.036755 0
-0.056675 0.036950 0
-0.063230 0.036660 0
-0.069662 0.035903 0
-0.075899 0.034695 0
-0.081875 0.033049 0
-0.087521 0.030977 0
-0.092774 0.028489 0
-0.097570 0.025600 0
-0.101849 0.022327 0
-0.105551 0.018690 0
-0.108621 0.014718 0
-0.111009 0.010447 0
-0.112670 0.005919 0
-0.113563 0.001187 0
-0.113657 -0.003689 0
-0.112927 -0.008637 0
-0.111361 -0.013577 0
-0.108955 -0.018421 0
-0.105719 -0.023072 0
-0.101678 -0.027429 0
-0.096873 -0.031388 0
-0.091359 -0.034845 0
-0.085211 -0.037702 0
-0.078521 -0.039868 0
-0.071396 -0.041267 0
-0.063961 -0.041840 0
-0.056354 -0.041551 0
-0.048720 -0.040391 0
-0.041215 -0.038382 0
-0.033990 -0.035580 0
-0.027194 -0.032076 0
-0.020964 -0.027994 0
-0.015420 -0.023495 0
-0.010658 -0.018768 0
-0.006749 -0.014031 0
-0.003732 -0.009522 0
-0.001619 -0.005501 0
-0.000389 -0.002235 0
0.000000 0.000000 0
0.000000 -0.000000 0
-0.000778 0.006665 0
-0.002887 0.013088 0
-0.006123 0.019077 0
-0.010305 0.024500 0
-0.015269 0.029275 0
-0.020868 0.033361 0
-0.026974 0.036746 0
-0.033469 0.039438 0
-0.040248 0.041458 0
-0.047216 0.042834 0
-0.054284 0.043597 0
-0.061370 0.043774 0
-0.068397 0.043391 0
-0.075289 0.042469 0
-0.081977 0.041026 0
-0.088390 0.039077 0
-0.094460 0.036634 0
-0.100121 0.033712 0
-0.105309 0.030325 0
-0.109959 0.026492 0
-0.114011 0.022239 0
-0.117408 0.017596 0
-0.120094 0.012603 0
-0.122021 0.007309 0
-0.123144 0.001772 0
-0.123426 -0.003937 0
-0.122839 -0.009741 0
-0.121361 -0.015548 0
-0.118985 -0.021258 0
-0.115713 -0.026760 0
-0.111565 -0.031939 0
-0.106574 -0.036673 0
-0.100793 -0.040841 0
-0.094294 -0.044326 0
-0.087168 -0.047020 0
-0.079524 -0.048828 0
-0.071493 -0.049676 0
-0.063221 -0.049514 0
-0.054866 -0.048325 0
-0.046597 -0.046126 0
-0.038585 -0.042973 0
-0.031001 -0.038965 0
-0.024004 -0.034242 0
-0.017735 -0.028982 0
-0.012315 -0.023400 0
-0.007836 -0.017743 0
-0.004355 -0.012282 0
-0.001898 -0.007306 0
-0.000459 -0.003112 0
0.000000 -0.000000 0
0.000000 0.000000 0
-0.000848 0.008175 0
-0.003142 0.015880 0
-0.006653 0.022945 0
-0.011175 0.029261 0
-0.016528 0.034766 0
-0.022550 0.039438 0
-0.029100 0.043279 0
-0.036052 0.046312 0
-0.043295 0.048570 0
-0.050727 0.050090 0
-0.058257 0.050910 0
-0.065801 0.051063 0
-0.073280 0.050579 0
-0.080618 0.049483 0
-0.087744 0.047796 0
-0.094587 0.045532 0
-0.101079 0.042708 0
-0.107152 0.039338 0
-0.112740 0.035438 0
-0.117778 0.031029 0
-0.122204 0.026139 0
-0.125956 0.020801 0
-0.128976 0.015060 0
-0.131211 0.008969 0
-0.132612 0.002592 0
-0.133135 -0.003994 0
-0.132745 -0.010702 0
-0.131416 -0.017431 0
-0.129129 -0.024069 0
-0.125882 -0.030492 0
-0.121683 -0.036568 0
-0.116561 -0.042159 0
-0.110561 -0.047125 0
-0.103750 -0.051328 0
-0.096217 -0.054638 0
-0.088073 -0.056941 0
-0.079452 -0.058144 0
-0.070507 -0.058178 0
-0.061411 -0.057015 0
-0.052348 -0.054662 0
-0.043510 -0.051175 0
-0.035089 -0.046657 0
-0.027272 -0.041260 0
-0.020226 -0.035183 0
-0.014098 -0.028668 0
-0.009003 -0.021991 0
-0.005022 -0.015460 0
-0.002198 -0.009396 0
-0.000534 -0.004133 0
0.000000 -0.000000 0
0.000000 0.000000 0
-0.000914 0.009808 0
-0.003378 0.018893 0
-0.007142 0.027110 0
-0.011980 0.034375 0
-0.017694 0.040650 0
-0.024110 0.045934 0
-0.031074 0.050248 0
-0.038453 0.053632 0
-0.046129 0.056132 0
-0.053998 0.057797 0
-0.061964 0.058671 0
-0.069943 0.058796 0
-0.077853 0.058208 0
-0.085620 0.056933 0
-0.093171 0.054995 0
-0.100436 0.052412 0
-0.107347 0.049199 0
-0.113834 0.045373 0
-0.119833 0.040951 0
-0.125275 0.035956 0
-0.130096 0.030416 0
-0.134233 0.024368 0
-0.137624 0.017858 0
-0.140211 0.010945 0
-0.141938 0.003696 0
-0.142757 -0.003804 0
-0.142625 -0.011460 0
-0.141505 -0.019164 0
-0.139373 -0.026792 0
-0.136214 -0.034207 0
-0.132029 -0.041260 0
-0.126835 -0.047795 0
-0.120670 -0.053652 0
-0.113594 -0.058670 0
-0.105692 -0.062697 0
-0.097073 -0.065593 0
-0.087874 -0.067241 0
-0.078257 -0.067555 0
-0.068403 -0.066485 0
-0.058517 -0.064027 0
-0.048811 -0.060232 0
-0.039504 -0.055203 0
-0.030810 -0.049105 0
-0.022928 -0.042155 0
-0.016035 -0.034622 0
-0.010273 -0.026819 0
-0.005748 -0.019088 0
-0.002523 -0.011795 0
-0.000615 -0.005309 0
0.000000 -0.000000 0
0.000000 0.000000 0
-0.000973 0.011553 0
-0.003593 0.022108 0
-0.007587 0.031547 0
-0.012714 0.039813 0
-0.018759 0.046896 0
-0.025535 0.052818 0
-0.032881 0.057622 0
-0.040654 0.061368 0
-0.048732 0.064115 0
-0.057006 0.065925 0
-0.065380 0.066855 0
-0.073766 0.066952 0
-0.082085 0.066256 0
-0.090261 0.064801 0
-0.098222 0.062612 0
-0.105899 0.059708 0
-0.113223 0.056106 0
-0.120126 0.051824 0
-0.126541 0.046878 0
-0.132401 0.041293 0
-0.137640 0.035097 0
-0.142190 0.028329 0
-0.145987 0.021038 0
-0.148967 0.013283 0
-0.151070 0.005138 0
-0.152240 -0.003308 0
-0.152425 -0.011954 0
-0.151580 -0.020683 0
-0.149671 -0.029360 0
-0.146670 -0.037837 0
-0.142568 -0.045948 0
-0.137370 -0.053518 0
-0.131103 -0.060366 0
-0.123819 -0.066306 0
-0.115595 -0.071159 0
-0.106537 -0.074759 0
-0.096782 -0.076960 0
-0.086498 -0.077649 0
-0.075879 -0.076754 0
-0.065145 -0.074255 0
-0.054533 -0.070188 0
-0.044289 -0.064658 0
-0.034659 -0.057836 0
-0.025877 -0.049958 0
-0.018154 -0.041323 0
-0.011666 -0.032278 0
-0.006547 -0.023210 0
-0.002881 -0.014530 0
-0.000704 -0.006656 0
0.000000 -0.000000 0
0.000000 0.000000 0
-0.001026 0.013401 0
-0.003785 0.025507 0
-0.007986 0.036231 0
-0.013372 0.045546 0
-0.019715 0.053471 0
-0.026816 0.060055 0
-0.034507 0.065367 0
-0.042638 0.069483 0
-0.051082 0.072484 0
-0.059728 0.074445 0
-0.068477 0.075432 0
-0.077242 0.075502 0
-0.085942 0.074703 0
-0.094504 0.073070 0
-0.102856 0.070632 0
-0.110929 0.067412 0
-0.118656 0.063426 0
-0.125971 0.058691 0
-0.132806 0.053227 0
-0.139093 0.047055 0
-0.144765 0.040205 0
-0.149753 0.032715 0
-0.153987 0.024635 0
-0.157401 0.016028 0
-0.159926 0.006969 0
-0.161500 -0.002449 0
-0.162064 -0.012120 0
-0.161561 -0.021918 0
-0.159944 -0.031702 0
-0.157177 -0.041310 0
-0.153234 -0.050560 0
-0.148107 -0.059259 0
-0.141812 -0.067202 0
-0.134387 -0.074179 0
-0.125900 -0.079979 0
-0.116451 -0.084405 0
-0.106176 -0.087280 0
-0.095244 -0.088458 0
-0.083861 -0.087837 0
-0.072264 -0.085374 0
-0.060711 -0.081088 0
-0.049482 -0.075077 0
-0.038856 -0.067517 0
-0.029106 -0.058660 0
-0.020484 -0.048834 0
-0.013203 -0.038426 0
-0.007431 -0.027873 0
-0.003280 -0.017637 0
-0.000805 -0.008191 0
0.000000 -0.000000 0
0.000000 -0.000000 0
-0.001073 0.015338 0
-0.003953 0.029068 0
-0.008336 0.041134 0
-0.013949 0.051542 0
-0.020553 0.060341 0
-0.027943 0.067610 0
-0.035939 0.073444 0
-0.044389 0.077943 0
-0.053160 0.081205 0
-0.062139 0.083320 0
-0.071227 0.084369 0
-0.080336 0.084417 0
-0.089387 0.083518 0
-0.098305 0.081715 0
-0.107023 0.079037 0
-0.115472 0.075508 0
-0.123588 0.071148 0
-0.131304 0.065973 0
-0.138555 0.060001 0
-0.145272 0.053252 0
-0.151388 0.045757 0
-0.156830 0.037551 0
-0.161529 0.028685 0
-0.165410 0.019222 0
-0.168401 0.009238 0
-0.170430 -0.001171 0
-0.171430 -0.011894 0
-0.171334 -0.022802 0
-0.170084 -0.033744 0
-0.167627 -0.044548 0
-0.163925 -0.055017 0
-0.158955 -0.064940 0
-0.152714 -0.074086 0
-0.145228 -0.082218 0
-0.136552 -0.089095 0
-0.126776 -0.094483 0
-0.116030 -0.098167 0
-0.104485 -0.099964 0
-0.092354 -0.099735 0
-0.079888 -0.097405 0
-0.067372 -0.092970 0
-0.055114 -0.086514 0
-0.043434 -0.078211 0
-0.032648 -0.068330 0
-0.023052 -0.057226 0
-0.014905 -0.045331 0
-0.008414 -0.033133 0
-0.003725 -0.021156 0
-0.000917 -0.009936 0
0.000000 -0.000000 0
0.000000 -0.000000 0
-0.001112 0.017353 0
-0.004095 0.032770 0
-0.008632 0.046227 0
-0.014439 0.057764 0
-0.021268 0.067466 0
-0.028905 0.075441 0
-0.037165 0.081812 0
-0.045890 0.086704 0
-0.054946 0.090235 0
-0.064216 0.092512 0
-0.073602 0.093629 0
-0.083016 0.093661 0
-0.092379 0.092671 0
-0.101619 0.090706 0
-0.110671 0.087799 0
-0.119468 0.083977 0
-0.127949 0.079258 0
-0.136049 0.073658 0
-0.143703 0.067195 0
-0.150845 0.059888 0
-0.157406 0.051763 0
-0.163313 0.042856 0
-0.168493 0.033215 0
-0.172868 0.022900 0
-0.176361 0.011990 0
-0.178892 0.000580 0
-0.180382 -0.011216 0
-0.180757 -0.023264 0
-0.179945 -0.035410 0
-0.177880 -0.047468 0
-0.174506 -0.059233 0
-0.169783 -0.070470 0
-0.163691 -0.080929 0
-0.156238 -0.090341 0
-0.147462 -0.098431 0
-0.137440 -0.104927 0
-0.126292 -0.109571 0
-0.114187 -0.112134 0
-0.101341 -0.112434 0
-0.088018 -0.110356 0
-0.074526 -0.105863 0
-0.061205 -0.099016 0
-0.048418 -0.089983 0
-0.036528 -0.079042 0
-0.025882 -0.066577 0
-0.016790 -0.053064 0
-0.009509 -0.039052 0
-0.004224 -0.025133 0
-0.001045 -0.011916 0
0.000000 -0.000000 0
0.000000 -0.000000 0
-0.001143 0.019433 0
-0.004210 0.036588 0
-0.008872 0.051478 0
-0.014838 0.064178 0
-0.021853 0.074807 0
-0.029694 0.083507 0
-0.038173 0.090429 0
-0.047127 0.095723 0
-0.056420 0.099531 0
-0.065935 0.101977 0
-0.075573 0.103168 0
-0.085246 0.103193 0
-0.094877 0.102122 0
-0.104398 0.100007 0
-0.113745 0.096886 0